/*--------------------------------*- C++ -*----------------------------------*\
  =========                 |
  \\      /  F ield         | OpenFOAM: The Open Source CFD Toolbox
   \\    /   O peration     | Website:  https://openfoam.org
    \\  /    A nd           | Version:  6
     \\/     M anipulation  |
\*---------------------------------------------------------------------------*/
FoamFile
{
    version     2.0;
    format      ascii;
    class       volScalarField;
    location    "0.1";
    object      p;
}
// * * * * * * * * * * * * * * * * * * * * * * * * * * * * * * * * * * * * * //

dimensions      [0 2 -2 0 0 0 0];

internalField   nonuniform List<scalar> 
400
(
-4.55292e-08
-0.00573169
-0.0127629
-0.0181165
-0.0200637
-0.0178471
-0.0114123
-0.00120113
0.012
0.0271639
0.043101
0.0585307
0.0721661
0.0828209
0.0895468
0.0918023
0.0896546
0.0839956
0.0767609
0.0710489
0.00565229
-0.00024696
-0.0057582
-0.00942746
-0.0104321
-0.00824284
-0.00278897
0.00561523
0.0163773
0.0287005
0.0416452
0.0541934
0.0653245
0.0741082
0.0798156
0.0820468
0.0808778
0.0769438
0.0712527
0.0653991
0.0130528
0.00489591
-0.00105229
-0.00441374
-0.00521257
-0.00317483
0.00169653
0.00910387
0.01854
0.0293336
0.0406888
0.0517346
0.061588
0.0694325
0.0746081
0.076715
0.0757427
0.0720683
0.0658777
0.057748
0.0197145
0.00846231
0.00108504
-0.0027386
-0.00373617
-0.00186233
0.00277232
0.00982555
0.0188046
0.029089
0.0399477
0.0505713
0.0601203
0.0677904
0.0728881
0.0749241
0.0737529
0.0695256
0.0617702
0.0504501
0.0239787
0.00947618
0.000391927
-0.00411043
-0.00536426
-0.00352389
0.00118845
0.00836407
0.0174931
0.0279689
0.0390843
0.0500455
0.0600053
0.0681148
0.0735891
0.0757982
0.0744335
0.0694372
0.0597752
0.0450008
0.024621
0.00683676
-0.00401913
-0.00919978
-0.0105894
-0.00852452
-0.00334046
0.00447486
0.0143751
0.0257441
0.0378712
0.0499465
0.0610778
0.0703278
0.0767704
0.0795865
0.0782688
0.0725428
0.0608474
0.0424327
0.0205756
-0.000539979
-0.0131298
-0.0188346
-0.0200886
-0.017415
-0.01127
-0.00223143
0.00910661
0.0221066
0.0360411
0.050067
0.0632225
0.0744477
0.082629
0.0867018
0.0859043
0.0797002
0.0659581
0.0436494
0.0107332
-0.0138103
-0.0280096
-0.0339286
-0.0346138
-0.0308077
-0.0231073
-0.0121912
0.00129588
0.0166974
0.0332727
0.050147
0.0662822
0.0804742
0.091379
0.0976201
0.0980969
0.0919152
0.0762342
0.0496855
-0.00621162
-0.0343319
-0.0499126
-0.0555457
-0.0550294
-0.0493943
-0.0394137
-0.0258786
-0.00947812
0.00913064
0.029219
0.0499045
0.0700894
0.0884225
0.103296
0.112944
0.11581
0.11048
0.093145
0.0619325
-0.0319008
-0.0637893
-0.0803492
-0.0849128
-0.0822774
-0.0738796
-0.0607214
-0.0437176
-0.0235824
-0.000934023
0.0235613
0.0490684
0.074478
0.0983201
0.118709
0.133414
0.140272
0.137102
0.118701
0.082376
-0.0685035
-0.10436
-0.121166
-0.123406
-0.117296
-0.104857
-0.0873886
-0.0659329
-0.041189
-0.0136691
0.0161071
0.0474449
0.0793162
0.110209
0.137989
0.159907
0.173022
0.174044
0.155714
0.113915
-0.119058
-0.158979
-0.174647
-0.172506
-0.160874
-0.142614
-0.119386
-0.0923373
-0.0620765
-0.0289028
0.00693578
0.0450249
0.0845695
0.124162
0.161532
0.193423
0.21596
0.224315
0.208167
0.16087
-0.188165
-0.231776
-0.243622
-0.233669
-0.213409
-0.186836
-0.155997
-0.122055
-0.0853829
-0.0459061
-0.00342652
0.042115
0.090376
0.140299
0.189715
0.235014
0.271342
0.291862
0.281782
0.229914
-0.28348
-0.328826
-0.331526
-0.308028
-0.274465
-0.236172
-0.195439
-0.153206
-0.109357
-0.0632009
-0.0138658
0.0394244
0.0970684
0.158719
0.222733
0.285567
0.341614
0.381722
0.38489
0.33189
-0.418886
-0.459283
-0.44213
-0.395628
-0.341986
-0.287578
-0.234392
-0.182616
-0.131201
-0.0785034
-0.0226961
0.0379847
0.105012
0.179217
0.260148
0.345169
0.428753
0.499787
0.529624
0.485379
-0.620225
-0.63654
-0.578597
-0.494165
-0.411248
-0.33565
-0.2677
-0.205792
-0.14724
-0.0889963
-0.0279903
0.0387824
0.114191
0.20077
0.300171
0.412122
0.533051
0.651764
0.732713
0.72232
-0.935697
-0.878538
-0.741762
-0.598047
-0.47458
-0.372835
-0.288959
-0.217731
-0.15379
-0.0921906
-0.0283752
0.0420515
0.123579
0.220949
0.339051
0.482158
0.651846
0.841101
1.01516
1.0973
-1.47521
-1.20773
-0.920641
-0.691471
-0.517605
-0.387864
-0.29029
-0.213435
-0.14808
-0.0870456
-0.0243208
0.0457465
0.1292
0.233256
0.367182
0.542597
0.770911
1.05896
1.40412
1.72856
-2.53206
-1.63683
-1.04533
-0.710839
-0.495977
-0.352412
-0.254787
-0.183731
-0.126185
-0.0734832
-0.0190655
0.0430363
0.11944
0.218926
0.354831
0.547796
0.825843
1.23709
1.91794
2.91535
-4.35558
-2.04869
-0.974542
-0.563642
-0.358719
-0.241078
-0.170895
-0.124332
-0.0877746
-0.0535475
-0.0164603
0.0280252
0.0850805
0.162249
0.272919
0.442473
0.718238
1.22627
2.41454
4.8366
)
;

boundaryField
{
    movingWall
    {
        type            zeroGradient;
    }
    fixedWalls
    {
        type            zeroGradient;
    }
    frontAndBack
    {
        type            empty;
    }
}


// ************************************************************************* //
