/*--------------------------------*- C++ -*----------------------------------*\
  =========                 |
  \\      /  F ield         | OpenFOAM: The Open Source CFD Toolbox
   \\    /   O peration     | Website:  https://openfoam.org
    \\  /    A nd           | Version:  6
     \\/     M anipulation  |
\*---------------------------------------------------------------------------*/
FoamFile
{
    version     2.0;
    format      ascii;
    class       surfaceScalarField;
    location    "0.1";
    object      phi;
}
// * * * * * * * * * * * * * * * * * * * * * * * * * * * * * * * * * * * * * //

dimensions      [0 3 -1 0 0 0 0];

internalField   nonuniform List<scalar> 
760
(
1.39809e-08
-1.39808e-08
-2.19125e-08
3.58933e-08
-1.12593e-07
9.06797e-08
-2.41748e-07
1.29155e-07
-3.89908e-07
1.48159e-07
-5.38676e-07
1.48769e-07
-6.72237e-07
1.3356e-07
-7.77918e-07
1.05682e-07
-8.46331e-07
6.84135e-08
-8.71415e-07
2.50832e-08
-8.50567e-07
-2.08481e-08
-7.84893e-07
-6.56743e-08
-6.79505e-07
-1.05389e-07
-5.43759e-07
-1.35746e-07
-3.91273e-07
-1.52485e-07
-2.39484e-07
-1.51789e-07
-1.08407e-07
-1.31077e-07
-1.82923e-08
-9.01146e-08
1.53922e-08
-3.36847e-08
1.53917e-08
-3.36801e-08
1.96997e-08
-1.77535e-07
1.79748e-07
-4.27015e-07
3.40162e-07
-7.52005e-07
4.54145e-07
-1.11362e-06
5.09776e-07
-1.47247e-06
5.07615e-07
-1.79301e-06
4.54098e-07
-2.04585e-06
3.58523e-07
-2.20887e-06
2.31434e-07
-2.26783e-06
8.40431e-08
-2.21689e-06
-7.17886e-08
-2.05913e-06
-2.23432e-07
-1.80702e-06
-3.57497e-07
-1.48258e-06
-4.60187e-07
-1.11687e-06
-5.18191e-07
-7.48344e-07
-5.20316e-07
-4.19363e-07
-4.60058e-07
-1.70365e-07
-3.39112e-07
-3.04002e-08
-1.73649e-07
-1.50092e-08
-9.07798e-08
1.1048e-07
-3.51301e-07
4.40267e-07
-7.52276e-07
7.41137e-07
-1.24797e-06
9.49837e-07
-1.78514e-06
1.04695e-06
-2.31057e-06
1.03304e-06
-2.77602e-06
9.19552e-07
-3.14135e-06
7.23856e-07
-3.3762e-06
4.66278e-07
-3.461e-06
1.68847e-07
-3.3878e-06
-1.4499e-07
-3.1609e-06
-4.50332e-07
-2.79742e-06
-7.20982e-07
-2.32737e-06
-9.30234e-07
-1.79289e-06
-1.05267e-06
-1.2459e-06
-1.0673e-06
-7.43718e-07
-9.62243e-07
-3.42139e-07
-7.40692e-07
-8.61808e-08
-4.29607e-07
-1.0119e-07
-1.42963e-07
2.53443e-07
-5.1741e-07
8.14713e-07
-1.06508e-06
1.2888e-06
-1.72068e-06
1.60544e-06
-2.41648e-06
1.74275e-06
-3.08778e-06
1.70434e-06
-3.67724e-06
1.50901e-06
-4.13754e-06
1.18416e-06
-4.43305e-06
7.61789e-07
-4.54079e-06
2.76583e-07
-4.45119e-06
-2.34583e-07
-4.16891e-06
-7.32617e-07
-3.71346e-06
-1.17643e-06
-3.11958e-06
-1.52412e-06
-2.43666e-06
-1.73559e-06
-1.72665e-06
-1.77731e-06
-1.05983e-06
-1.62907e-06
-5.08217e-07
-1.2923e-06
-1.37467e-07
-8.00358e-07
-2.38656e-07
-1.90857e-07
4.44301e-07
-6.75473e-07
1.29933e-06
-1.36646e-06
1.97979e-06
-2.17668e-06
2.41567e-06
-3.02286e-06
2.58893e-06
-3.82956e-06
2.51104e-06
-4.53213e-06
2.21157e-06
-5.07838e-06
1.73041e-06
-5.42944e-06
1.11285e-06
-5.56015e-06
4.07291e-07
-5.45957e-06
-3.35159e-07
-5.13175e-06
-1.06044e-06
-4.5967e-06
-1.71149e-06
-3.89134e-06
-2.22947e-06
-3.06983e-06
-2.5571e-06
-2.20248e-06
-2.64466e-06
-1.37248e-06
-2.45906e-06
-6.70218e-07
-1.99457e-06
-1.85472e-07
-1.2851e-06
-4.24128e-07
-2.3703e-07
6.8133e-07
-8.30414e-07
1.89271e-06
-1.66352e-06
2.81289e-06
-2.6258e-06
3.37795e-06
-3.61755e-06
3.58067e-06
-4.55295e-06
3.44645e-06
-5.36149e-06
3.02011e-06
-5.98797e-06
2.35689e-06
-6.39198e-06
1.51686e-06
-6.54726e-06
5.62574e-07
-6.4416e-06
-4.4082e-07
-6.07746e-06
-1.42457e-06
-5.47345e-06
-2.3155e-06
-4.66624e-06
-3.03668e-06
-3.71245e-06
-3.51089e-06
-2.68939e-06
-3.66772e-06
-1.69355e-06
-3.45491e-06
-8.35874e-07
-2.85224e-06
-2.33711e-07
-1.88727e-06
-6.5784e-07
-2.84026e-07
9.65357e-07
-9.8786e-07
2.59655e-06
-1.96381e-06
3.78884e-06
-3.07617e-06
4.49031e-06
-4.20821e-06
4.71271e-06
-5.26457e-06
4.50281e-06
-6.1707e-06
3.92624e-06
-6.87067e-06
3.05686e-06
-7.32454e-06
1.97073e-06
-7.50625e-06
7.44284e-07
-7.4025e-06
-5.4457e-07
-7.01317e-06
-1.8139e-06
-6.35329e-06
-2.97538e-06
-5.45638e-06
-3.93359e-06
-4.37851e-06
-4.58876e-06
-3.20183e-06
-4.8444e-06
-2.03579e-06
-4.62095e-06
-1.01409e-06
-3.87394e-06
-2.85896e-07
-2.61546e-06
-9.43736e-07
-3.34131e-07
1.29949e-06
-1.15291e-06
3.41533e-06
-2.27325e-06
4.90918e-06
-3.53171e-06
5.74877e-06
-4.7944e-06
5.9754e-06
-5.95825e-06
5.66665e-06
-6.94764e-06
4.91563e-06
-7.7092e-06
3.81841e-06
-8.20634e-06
2.46787e-06
-8.41506e-06
9.5301e-07
-8.32155e-06
-6.38083e-07
-7.92209e-06
-2.21336e-06
-7.22557e-06
-3.67189e-06
-6.25851e-06
-4.90065e-06
-5.07196e-06
-5.77531e-06
-3.74898e-06
-6.16739e-06
-2.4101e-06
-5.95983e-06
-1.21342e-06
-5.07061e-06
-3.45632e-07
-3.48326e-06
-1.28937e-06
-3.89558e-07
1.68904e-06
-1.3301e-06
4.35587e-06
-2.59541e-06
6.17449e-06
-3.99071e-06
7.14407e-06
-5.36552e-06
7.35021e-06
-6.61249e-06
6.91363e-06
-7.65981e-06
5.96295e-06
-8.4615e-06
4.62011e-06
-8.9885e-06
2.99487e-06
-9.22167e-06
1.18619e-06
-9.14781e-06
-7.11949e-07
-8.75877e-06
-2.6024e-06
-8.05438e-06
-4.37629e-06
-7.04909e-06
-5.90594e-06
-5.78241e-06
-7.04199e-06
-4.33162e-06
-7.61817e-06
-2.82375e-06
-7.4677e-06
-1.44156e-06
-6.45279e-06
-4.16522e-07
-4.5083e-06
-1.70589e-06
-4.53061e-07
2.14211e-06
-1.52423e-06
5.42704e-06
-2.93175e-06
7.58201e-06
-4.44477e-06
8.65709e-06
-5.89838e-06
8.80382e-06
-7.18709e-06
8.20234e-06
-8.25023e-06
7.02609e-06
-9.05625e-06
5.42612e-06
-9.58919e-06
3.52781e-06
-9.83874e-06
1.43573e-06
-9.79417e-06
-7.56515e-07
-9.44256e-06
-2.95401e-06
-8.77156e-06
-5.04729e-06
-7.7775e-06
-6.9e-06
-6.47942e-06
-8.34006e-06
-4.93837e-06
-9.15923e-06
-3.27885e-06
-9.12722e-06
-1.70548e-06
-8.02617e-06
-5.0266e-07
-5.71112e-06
-2.20855e-06
-5.29052e-07
2.67116e-06
-1.74184e-06
6.63983e-06
-3.28185e-06
9.12202e-06
-4.87702e-06
1.02523e-05
-6.35355e-06
1.02803e-05
-7.61803e-06
9.46683e-06
-8.63178e-06
8.03983e-06
-9.38689e-06
6.18124e-06
-9.8876e-06
4.02852e-06
-1.01372e-05
1.68536e-06
-1.01303e-05
-7.63418e-07
-9.84958e-06
-3.23476e-06
-9.26791e-06
-5.62897e-06
-8.35706e-06
-7.81085e-06
-7.10452e-06
-9.5926e-06
-5.54003e-06
-1.07237e-05
-3.76997e-06
-1.08973e-05
-2.01167e-06
-9.78447e-06
-6.09514e-07
-7.11327e-06
-2.81806e-06
-6.25455e-07
3.29661e-06
-1.99311e-06
8.00748e-06
-3.64259e-06
1.07715e-05
-5.25776e-06
1.18674e-05
-6.66822e-06
1.16908e-05
-7.80924e-06
1.06079e-05
-8.67895e-06
8.90954e-06
-9.30429e-06
6.80658e-06
-9.71733e-06
4.44157e-06
-9.94014e-06
1.90816e-06
-9.97581e-06
-7.27749e-07
-9.80426e-06
-3.4063e-06
-9.38275e-06
-6.05048e-06
-8.6531e-06
-8.5405e-06
-7.55934e-06
-1.06864e-05
-6.0803e-06
-1.22028e-05
-4.27939e-06
-1.26982e-05
-2.36603e-06
-1.16978e-05
-7.45398e-07
-8.7339e-06
-3.56346e-06
-7.56721e-07
4.05333e-06
-2.29304e-06
9.5438e-06
-4.00344e-06
1.24819e-05
-5.53381e-06
1.33978e-05
-6.74237e-06
1.28994e-05
-7.61856e-06
1.1484e-05
-8.216e-06
9.50698e-06
-8.60784e-06
7.19842e-06
-8.86023e-06
4.69395e-06
-9.01768e-06
2.06561e-06
-9.09492e-06
-6.50508e-07
-9.07214e-06
-3.42908e-06
-8.89307e-06
-6.22955e-06
-8.4681e-06
-8.96548e-06
-7.68836e-06
-1.14661e-05
-6.45974e-06
-1.34314e-05
-4.76706e-06
-1.43909e-05
-2.77193e-06
-1.3693e-05
-9.23788e-07
-1.0582e-05
-4.48725e-06
-9.48231e-07
5.00156e-06
-2.65905e-06
1.12546e-05
-4.33128e-06
1.41541e-05
-5.60414e-06
1.46707e-05
-6.41206e-06
1.37073e-05
-6.83441e-06
1.19064e-05
-6.99993e-06
9.6725e-06
-7.0354e-06
7.23389e-06
-7.04217e-06
4.70072e-06
-7.08676e-06
2.11021e-06
-7.19678e-06
-5.40494e-07
-7.35699e-06
-3.26887e-06
-7.50442e-06
-6.08212e-06
-7.52432e-06
-8.94558e-06
-7.25393e-06
-1.17365e-05
-6.50817e-06
-1.41771e-05
-5.14912e-06
-1.57499e-05
-3.22252e-06
-1.56196e-05
-1.16619e-06
-1.26384e-05
-5.65344e-06
-1.23982e-06
6.24138e-06
-3.09408e-06
1.31089e-05
-4.52924e-06
1.55893e-05
-5.26776e-06
1.54092e-05
-5.40053e-06
1.38401e-05
-5.13863e-06
1.16445e-05
-4.69775e-06
9.23162e-06
-4.25396e-06
6.7901e-06
-3.93404e-06
4.3808e-06
-3.81839e-06
1.99456e-06
-3.94469e-06
-4.14194e-07
-4.30698e-06
-2.90657e-06
-4.84816e-06
-5.54094e-06
-5.4465e-06
-8.34725e-06
-5.90178e-06
-1.12812e-05
-5.93735e-06
-1.41416e-05
-5.25184e-06
-1.64354e-05
-3.67514e-06
-1.71963e-05
-1.50162e-06
-1.48119e-05
-7.15506e-06
-1.6742e-06
7.91559e-06
-3.52208e-06
1.49567e-05
-4.33499e-06
1.64022e-05
-4.12042e-06
1.51946e-05
-3.2371e-06
1.29567e-05
-2.05508e-06
1.04625e-05
-8.62536e-07
8.03907e-06
1.43083e-07
5.78448e-06
8.36075e-07
3.68781e-06
1.14105e-06
1.68959e-06
1.01886e-06
-2.92004e-07
4.62888e-07
-2.3506e-06
-4.92762e-07
-4.58529e-06
-1.7514e-06
-7.08861e-06
-3.11849e-06
-9.91412e-06
-4.26352e-06
-1.29965e-05
-4.71549e-06
-1.59834e-05
-3.97538e-06
-1.79364e-05
-1.9447e-06
-1.68426e-05
-9.09975e-06
-2.22492e-06
1.01405e-05
-3.59394e-06
1.63258e-05
-3.09271e-06
1.5901e-05
-1.36985e-06
1.34717e-05
8.59138e-07
1.07278e-05
3.10498e-06
8.21663e-06
5.07703e-06
6.06703e-06
6.61852e-06
4.24299e-06
7.64945e-06
2.65689e-06
8.12737e-06
1.21166e-06
8.02561e-06
-1.90241e-07
7.32526e-06
-1.65025e-06
6.02082e-06
-3.28085e-06
4.14349e-06
-5.21128e-06
1.81062e-06
-7.58124e-06
-6.92281e-07
-1.04936e-05
-2.80981e-06
-1.38659e-05
-3.6663e-06
-1.70799e-05
-2.40498e-06
-1.81039e-05
-1.15047e-05
-2.54699e-06
1.26875e-05
-2.18247e-06
1.59612e-05
7.08347e-07
1.30102e-05
4.45131e-06
9.72879e-06
8.10505e-06
7.07401e-06
1.12628e-05
5.05891e-06
1.37804e-05
3.54943e-06
1.56311e-05
2.39222e-06
1.6829e-05
1.45902e-06
1.73896e-05
6.51107e-07
1.73116e-05
-1.1232e-07
1.65695e-05
-9.08124e-07
1.51127e-05
-1.82403e-06
1.28777e-05
-2.97628e-06
9.826e-06
-4.52954e-06
6.03687e-06
-6.70451e-06
1.89794e-06
-9.72699e-06
-1.56029e-06
-1.36217e-05
-2.43009e-06
-1.72341e-05
-1.39348e-05
-8.39004e-07
1.35265e-05
4.06858e-06
1.10537e-05
1.02917e-05
6.78704e-06
1.57833e-05
4.23714e-06
2.01411e-05
2.71627e-06
2.34336e-05
1.76634e-06
2.58291e-05
1.15397e-06
2.74837e-05
7.37574e-07
2.85121e-05
4.307e-07
2.89826e-05
1.80596e-07
2.89188e-05
-4.85544e-08
2.82981e-05
-2.87442e-07
2.70459e-05
-5.71773e-07
2.50251e-05
-9.55482e-07
2.20283e-05
-1.53272e-06
1.77984e-05
-2.47464e-06
1.21604e-05
-4.08901e-06
5.46035e-06
-6.9216e-06
-1.89851e-07
-1.15839e-05
-1.41247e-05
1.35265e-05
2.45802e-05
3.13672e-05
3.56043e-05
3.83206e-05
4.0087e-05
4.12409e-05
4.19785e-05
4.24092e-05
4.25898e-05
4.25412e-05
4.22538e-05
4.1682e-05
4.07265e-05
3.91938e-05
3.67192e-05
3.26302e-05
2.57086e-05
1.41247e-05
)
;

boundaryField
{
    movingWall
    {
        type            calculated;
        value           uniform 0;
    }
    fixedWalls
    {
        type            calculated;
        value           uniform 0;
    }
    frontAndBack
    {
        type            empty;
        value           nonuniform 0();
    }
}


// ************************************************************************* //
