/*--------------------------------*- C++ -*----------------------------------*\
  =========                 |
  \\      /  F ield         | OpenFOAM: The Open Source CFD Toolbox
   \\    /   O peration     | Website:  https://openfoam.org
    \\  /    A nd           | Version:  6
     \\/     M anipulation  |
\*---------------------------------------------------------------------------*/
FoamFile
{
    version     2.0;
    format      ascii;
    class       volVectorField;
    location    "0.1";
    object      U;
}
// * * * * * * * * * * * * * * * * * * * * * * * * * * * * * * * * * * * * * //

dimensions      [0 1 -1 0 0 0 0];

internalField   nonuniform List<vector> 
400
(
(0.000247229 -0.000245056 0)
(0.000135914 0.000112204 0)
(-0.00116118 0.000559589 0)
(-0.00342891 0.000875133 0)
(-0.00627888 0.00103316 0)
(-0.00932015 0.0010486 0)
(-0.0122048 0.000945806 0)
(-0.0146453 0.000750839 0)
(-0.0164201 0.000488521 0)
(-0.0173737 0.000182606 0)
(-0.0174189 -0.000142776 0)
(-0.0165395 -0.000461621 0)
(-0.0147969 -0.000745108 0)
(-0.0123358 -0.000961582 0)
(-0.00938746 -0.00107776 0)
(-0.00626683 -0.00106181 0)
(-0.00335711 -0.000889291 0)
(-0.00107589 -0.000552758 0)
(0.000189335 -9.22402e-05 0)
(0.000262129 0.000257013 0)
(-7.95693e-05 -0.000163645 0)
(-0.0015897 0.00162191 0)
(-0.00560249 0.00356366 0)
(-0.0115295 0.00495724 0)
(-0.0185838 0.00565248 0)
(-0.0259655 0.00566773 0)
(-0.0329135 0.00508797 0)
(-0.0387697 0.00402645 0)
(-0.0430144 0.00260604 0)
(-0.0452815 0.000954187 0)
(-0.0453679 -0.000795561 0)
(-0.0432438 -0.00250056 0)
(-0.0390633 -0.00400798 0)
(-0.033172 -0.00515791 0)
(-0.0261061 -0.00579284 0)
(-0.0185734 -0.00577603 0)
(-0.0114 -0.00502233 0)
(-0.00543746 -0.00354267 0)
(-0.00147677 -0.00154179 0)
(-4.51481e-05 0.000220778 0)
(-0.000523908 0.00107597 0)
(-0.00365593 0.00564515 0)
(-0.0104197 0.0100597 0)
(-0.0196698 0.0131875 0)
(-0.0302661 0.0146968 0)
(-0.0411395 0.0145881 0)
(-0.0512646 0.0130305 0)
(-0.0597446 0.0102794 0)
(-0.0658676 0.00663152 0)
(-0.0691306 0.00240592 0)
(-0.0692551 -0.00205825 0)
(-0.0662018 -0.00640032 0)
(-0.0601832 -0.0102397 0)
(-0.0516722 -0.0131869 0)
(-0.0413976 -0.0148701 0)
(-0.0303173 -0.0149815 0)
(-0.0195424 -0.013349 0)
(-0.0102179 -0.0100316 0)
(-0.00350369 -0.00547503 0)
(-0.00047423 -0.000938819 0)
(-0.000918191 0.00342613 0)
(-0.00560837 0.0120265 0)
(-0.015068 0.0196022 0)
(-0.0274896 0.0247878 0)
(-0.0413405 0.0271414 0)
(-0.0553117 0.0266846 0)
(-0.0681782 0.0237048 0)
(-0.0788805 0.0186383 0)
(-0.0865823 0.0119995 0)
(-0.090694 0.00434783 0)
(-0.0908869 -0.00372026 0)
(-0.0871084 -0.0115719 0)
(-0.0795977 -0.0185424 0)
(-0.0688973 -0.0239558 0)
(-0.0558552 -0.0271701 0)
(-0.0416021 -0.0276559 0)
(-0.0274736 -0.0251111 0)
(-0.0148901 -0.0196037 0)
(-0.00543629 -0.011762 0)
(-0.000854744 -0.00318352 0)
(-0.00126601 0.00677278 0)
(-0.00743592 0.0206308 0)
(-0.0195308 0.0320054 0)
(-0.0350442 0.0394719 0)
(-0.0520135 0.0425992 0)
(-0.0688871 0.0415119 0)
(-0.0842697 0.0366734 0)
(-0.0969834 0.0287433 0)
(-0.106114 0.0184865 0)
(-0.111019 0.00672983 0)
(-0.111337 -0.00564883 0)
(-0.106993 -0.0177196 0)
(-0.098224 -0.0285046 0)
(-0.085595 -0.0370039 0)
(-0.0700193 -0.0422571 0)
(-0.0527547 -0.043452 0)
(-0.0353407 -0.0400819 0)
(-0.019494 -0.0321347 0)
(-0.00728677 -0.0203119 0)
(-0.00119468 -0.00641433 0)
(-0.00159445 0.0110525 0)
(-0.0092136 0.0314101 0)
(-0.0239247 0.0472474 0)
(-0.0424983 0.0572067 0)
(-0.0625127 0.0610001 0)
(-0.0821683 0.0589641 0)
(-0.0999194 0.051818 0)
(-0.114506 0.0404976 0)
(-0.124974 0.0260489 0)
(-0.13066 0.00958104 0)
(-0.131179 -0.00774085 0)
(-0.126429 -0.0246849 0)
(-0.116611 -0.0399476 0)
(-0.102269 -0.0521762 0)
(-0.0843295 -0.0600392 0)
(-0.064137 -0.0623604 0)
(-0.0434216 -0.0583208 0)
(-0.0242227 -0.0477017 0)
(-0.00916546 -0.0311529 0)
(-0.0015288 -0.010596 0)
(-0.00192946 0.0162562 0)
(-0.0110256 0.0443707 0)
(-0.0283863 0.0653351 0)
(-0.0500141 0.0779686 0)
(-0.0730001 0.0822738 0)
(-0.0952997 0.078932 0)
(-0.115247 0.0690179 0)
(-0.131544 0.0538055 0)
(-0.143243 0.0346499 0)
(-0.149693 0.0129444 0)
(-0.150504 -0.00987187 0)
(-0.145536 -0.0322817 0)
(-0.134925 -0.0526625 0)
(-0.119137 -0.0692911 0)
(-0.0990514 -0.0804097 0)
(-0.0760414 -0.0843784 0)
(-0.0519983 -0.0799228 0)
(-0.0293 -0.0664509 0)
(-0.0111995 -0.0444081 0)
(-0.00189314 -0.0157693 0)
(-0.00229437 0.0224234 0)
(-0.0129506 0.0595761 0)
(-0.033037 0.086297 0)
(-0.0577025 0.10171 0)
(-0.0835195 0.106289 0)
(-0.108219 0.101224 0)
(-0.130068 0.0880666 0)
(-0.147797 0.0684986 0)
(-0.16053 0.0442058 0)
(-0.167678 0.0168511 0)
(-0.16887 -0.0118892 0)
(-0.163927 -0.0402567 0)
(-0.152881 -0.0663422 0)
(-0.136058 -0.0880536 0)
(-0.114197 -0.103158 0)
(-0.0886128 -0.109435 0)
(-0.0612905 -0.104975 0)
(-0.034936 -0.0885874 0)
(-0.0135155 -0.0603022 0)
(-0.00232317 -0.0220497 0)
(-0.00271311 0.0296382 0)
(-0.0150654 0.0771424 0)
(-0.0379766 0.110165 0)
(-0.0656025 0.128317 0)
(-0.0939615 0.132786 0)
(-0.120611 0.125487 0)
(-0.14384 0.108592 0)
(-0.16251 0.0842644 0)
(-0.175909 0.0545321 0)
(-0.183585 0.0212906 0)
(-0.185227 -0.0136142 0)
(-0.180617 -0.0482609 0)
(-0.16965 -0.0805232 0)
(-0.152425 -0.107974 0)
(-0.129428 -0.127875 0)
(-0.101771 -0.137306 0)
(-0.0714055 -0.133494 0)
(-0.0413064 -0.114344 0)
(-0.0162392 -0.0791537 0)
(-0.00285685 -0.0296243 0)
(-0.00321802 0.0380321 0)
(-0.0174636 0.0972287 0)
(-0.0432972 0.13693 0)
(-0.073673 0.157532 0)
(-0.104028 0.161281 0)
(-0.131845 0.151096 0)
(-0.155582 0.129948 0)
(-0.174383 0.100554 0)
(-0.187829 0.0652733 0)
(-0.195698 0.0261676 0)
(-0.1978 -0.0148517 0)
(-0.193898 -0.0558229 0)
(-0.183713 -0.0945201 0)
(-0.167032 -0.128266 0)
(-0.143929 -0.153827 0)
(-0.115113 -0.167475 0)
(-0.0822858 -0.16531 0)
(-0.0485431 -0.14391 0)
(-0.0195077 -0.101354 0)
(-0.00354242 -0.0387562 0)
(-0.00386428 0.0478041 0)
(-0.0202876 0.120036 0)
(-0.0491058 0.166493 0)
(-0.0817796 0.188845 0)
(-0.113175 0.190922 0)
(-0.140886 0.177016 0)
(-0.16377 0.151093 0)
(-0.181457 0.116479 0)
(-0.193986 0.0758252 0)
(-0.201485 0.0312508 0)
(-0.203961 -0.0154138 0)
(-0.201188 -0.0623368 0)
(-0.1927 -0.107369 0)
(-0.177883 -0.147739 0)
(-0.156228 -0.1798 0)
(-0.127769 -0.198956 0)
(-0.0936268 -0.199898 0)
(-0.0567182 -0.177325 0)
(-0.0234913 -0.12734 0)
(-0.00445224 -0.049802 0)
(-0.00475566 0.0592722 0)
(-0.0237792 0.145815 0)
(-0.0555424 0.198565 0)
(-0.0896413 0.221337 0)
(-0.12049 0.220317 0)
(-0.146135 0.201638 0)
(-0.166163 0.170455 0)
(-0.180957 0.130715 0)
(-0.191196 0.0852618 0)
(-0.197482 0.0361181 0)
(-0.200098 -0.0151558 0)
(-0.198885 -0.0670727 0)
(-0.193198 -0.117798 0)
(-0.18197 -0.164703 0)
(-0.16395 -0.203928 0)
(-0.138181 -0.230058 0)
(-0.104729 -0.236135 0)
(-0.0658018 -0.214301 0)
(-0.0284239 -0.157549 0)
(-0.00570726 -0.0632541 0)
(-0.00609004 0.0729751 0)
(-0.0283462 0.174864 0)
(-0.0627523 0.23251 0)
(-0.0966672 0.253431 0)
(-0.124435 0.247288 0)
(-0.145132 0.222592 0)
(-0.159538 0.185815 0)
(-0.169079 0.14143 0)
(-0.17524 0.0922914 0)
(-0.179182 0.0401161 0)
(-0.181529 -0.0140238 0)
(-0.182246 -0.0692238 0)
(-0.180573 -0.124242 0)
(-0.175014 -0.176923 0)
(-0.163485 -0.223539 0)
(-0.143747 -0.258107 0)
(-0.114216 -0.271946 0)
(-0.0755424 -0.253927 0)
(-0.0346358 -0.192328 0)
(-0.00751917 -0.0798265 0)
(-0.00823335 0.0898524 0)
(-0.0346232 0.20746 0)
(-0.0707106 0.267002 0)
(-0.101532 0.282484 0)
(-0.1223 0.268558 0)
(-0.134039 0.23658 0)
(-0.139278 0.194257 0)
(-0.140726 0.146308 0)
(-0.140733 0.095292 0)
(-0.141008 0.0423657 0)
(-0.142511 -0.0121019 0)
(-0.145385 -0.0680038 0)
(-0.148873 -0.124963 0)
(-0.151202 -0.181683 0)
(-0.14955 -0.235078 0)
(-0.140257 -0.279153 0)
(-0.119498 -0.303813 0)
(-0.0851545 -0.29416 0)
(-0.0425445 -0.231712 0)
(-0.0102522 -0.100593 0)
(-0.0117989 0.111502 0)
(-0.0433916 0.243561 0)
(-0.0786089 0.299361 0)
(-0.101173 0.304199 0)
(-0.109139 0.279438 0)
(-0.106758 0.239339 0)
(-0.0987756 0.192321 0)
(-0.0891998 0.142767 0)
(-0.0810613 0.0925069 0)
(-0.0764144 0.0418666 0)
(-0.0764315 -0.0096383 0)
(-0.0814482 -0.0628126 0)
(-0.0908831 -0.118321 0)
(-0.103015 -0.176076 0)
(-0.11468 -0.23427 0)
(-0.121046 -0.287826 0)
(-0.115754 -0.326203 0)
(-0.0925297 -0.33098 0)
(-0.0524209 -0.274868 0)
(-0.0144568 -0.127142 0)
(-0.0175426 0.140563 0)
(-0.0548383 0.281914 0)
(-0.0830597 0.324263 0)
(-0.0885898 0.311819 0)
(-0.0758643 0.273685 0)
(-0.0535988 0.225969 0)
(-0.0287047 0.176544 0)
(-0.00596456 0.128524 0)
(0.0114976 0.0824951 0)
(0.0217535 0.0377603 0)
(0.0237007 -0.00701534 0)
(0.0168743 -0.053465 0)
(0.0014828 -0.103253 0)
(-0.0212966 -0.157662 0)
(-0.0487425 -0.216743 0)
(-0.0757737 -0.27757 0)
(-0.0940675 -0.331048 0)
(-0.0923306 -0.357086 0)
(-0.0633368 -0.31892 0)
(-0.0206196 -0.16179 0)
(-0.0253317 0.181555 0)
(-0.0656951 0.317758 0)
(-0.0735214 0.331139 0)
(-0.048488 0.294978 0)
(-0.00621373 0.243686 0)
(0.0403383 0.191826 0)
(0.0835349 0.144527 0)
(0.119212 0.102543 0)
(0.14522 0.0648439 0)
(0.160473 0.0297582 0)
(0.164347 -0.0046355 0)
(0.156397 -0.0404313 0)
(0.136317 -0.0799105 0)
(0.10421 -0.125476 0)
(0.0612626 -0.179221 0)
(0.0110637 -0.241499 0)
(-0.0383167 -0.307401 0)
(-0.0719033 -0.359816 0)
(-0.0699542 -0.356479 0)
(-0.0277733 -0.208111 0)
(-0.0291874 0.238719 0)
(-0.0603876 0.336067 0)
(-0.0220681 0.300532 0)
(0.0502387 0.239919 0)
(0.127115 0.182652 0)
(0.19634 0.13507 0)
(0.253456 0.0970977 0)
(0.297183 0.0666031 0)
(0.327614 0.0411864 0)
(0.345171 0.0187033 0)
(0.350059 -0.00277179 0)
(0.342029 -0.0251517 0)
(0.3203 -0.0505977 0)
(0.283629 -0.0818024 0)
(0.230753 -0.12217 0)
(0.161574 -0.175395 0)
(0.079473 -0.243212 0)
(-0.00339067 -0.319114 0)
(-0.0541593 -0.368825 0)
(-0.0279328 -0.267029 0)
(0.00929481 0.281241 0)
(0.0209496 0.295063 0)
(0.138874 0.211047 0)
(0.264212 0.143453 0)
(0.364101 0.0971227 0)
(0.439957 0.0656991 0)
(0.496178 0.0441575 0)
(0.53617 0.0288179 0)
(0.562638 0.0171537 0)
(0.577435 0.00746871 0)
(0.581495 -0.00148035 0)
(0.574844 -0.0108048 0)
(0.556533 -0.0217876 0)
(0.524469 -0.0362668 0)
(0.475245 -0.0571939 0)
(0.404134 -0.0893316 0)
(0.304794 -0.13972 0)
(0.173101 -0.216432 0)
(0.0423788 -0.311663 0)
(0.0197473 -0.299306 0)
(0.300611 0.145813 0)
(0.397342 0.127348 0)
(0.557429 0.0760803 0)
(0.674421 0.0437504 0)
(0.743819 0.025602 0)
(0.787014 0.015267 0)
(0.815273 0.00923017 0)
(0.833684 0.00552169 0)
(0.845073 0.00303626 0)
(0.851036 0.00115675 0)
(0.852329 -0.000493839 0)
(0.849062 -0.00221173 0)
(0.840713 -0.00433985 0)
(0.825899 -0.00743299 0)
(0.801894 -0.0125508 0)
(0.763493 -0.0218004 0)
(0.698974 -0.039312 0)
(0.58386 -0.0726464 0)
(0.416844 -0.127681 0)
(0.309853 -0.149196 0)
)
;

boundaryField
{
    movingWall
    {
        type            fixedValue;
        value           uniform (1 0 0);
    }
    fixedWalls
    {
        type            noSlip;
    }
    frontAndBack
    {
        type            empty;
    }
}


// ************************************************************************* //
