/*--------------------------------*- C++ -*----------------------------------*\
  =========                 |
  \\      /  F ield         | OpenFOAM: The Open Source CFD Toolbox
   \\    /   O peration     | Website:  https://openfoam.org
    \\  /    A nd           | Version:  6
     \\/     M anipulation  |
\*---------------------------------------------------------------------------*/
FoamFile
{
    version     2.0;
    format      ascii;
    class       volScalarField;
    location    "0.4";
    object      p;
}
// * * * * * * * * * * * * * * * * * * * * * * * * * * * * * * * * * * * * * //

dimensions      [0 2 -2 0 0 0 0];

internalField   nonuniform List<scalar> 
400
(
4.29967e-06
-0.00580434
-0.0129427
-0.0183972
-0.0204139
-0.01822
-0.0117566
-0.0014687
0.0118492
0.0271572
0.0432486
0.0588235
0.072576
0.0833035
0.0900468
0.0922613
0.0900209
0.0842363
0.0768756
0.0710775
0.00576997
-0.000210938
-0.00580688
-0.0095502
-0.0106078
-0.00844162
-0.00297754
0.00546916
0.0163016
0.0287148
0.0417577
0.0543985
0.065603
0.0744296
0.0801415
0.0823371
0.0810974
0.0770702
0.0712797
0.0653397
0.0133245
0.00504963
-0.000990355
-0.00442039
-0.00526959
-0.00326041
0.00160607
0.0090317
0.0185067
0.0293546
0.0407716
0.0518767
0.0617764
0.069645
0.074816
0.0768873
0.0758515
0.0720935
0.0658023
0.0575587
0.0201281
0.00871751
0.00123212
-0.0026648
-0.00371731
-0.00188025
0.0027364
0.00978985
0.0187858
0.0291007
0.0399979
0.0506603
0.0602397
0.0679231
0.0730106
0.0750093
0.0737748
0.0694624
0.0615937
0.050126
0.0244859
0.00979877
0.0005952
-0.00398487
-0.00529886
-0.00350365
0.0011786
0.00833883
0.0174668
0.0279545
0.039091
0.0500767
0.0600564
0.0681734
0.0736352
0.0758071
0.0743798
0.069297
0.0595116
0.0445652
0.0251563
0.00717999
-0.00379717
-0.00905645
-0.0105097
-0.00849704
-0.00335362
0.00443315
0.0143178
0.0256842
0.0378198
0.0499102
0.061056
0.070312
0.0767442
0.0795273
0.0781513
0.0723415
0.0605202
0.0419239
0.021066
-0.000228142
-0.0129305
-0.0187101
-0.0200283
-0.0174117
-0.0113158
-0.0023165
0.00899443
0.0219811
0.0359155
0.0499513
0.0631203
0.0743546
0.0825322
0.0865811
0.0857351
0.0794561
0.065596
0.0431124
0.0111086
-0.0135799
-0.0278724
-0.033857
-0.0346034
-0.0308564
-0.0232112
-0.0123427
0.00110826
0.0164884
0.0330582
0.0499405
0.0660918
0.0802998
0.091212
0.0974432
0.0978873
0.0916471
0.0758667
0.0491657
-0.0060095
-0.0342245
-0.0498695
-0.0555541
-0.0550919
-0.0495149
-0.039593
-0.0261118
-0.00975451
0.00882679
0.0289061
0.0496002
0.0698059
0.088165
0.10306
0.112716
0.115571
0.110206
0.0927996
0.0614717
-0.03191
-0.0638311
-0.0804197
-0.0850162
-0.0824242
-0.0740804
-0.0609818
-0.0440363
-0.0239499
-0.00133402
0.0231499
0.0486671
0.0741038
0.097983
0.118409
0.133143
0.140014
0.136837
0.118402
0.0820093
-0.0687346
-0.104556
-0.121352
-0.123604
-0.117522
-0.105131
-0.0877206
-0.0663263
-0.0416365
-0.0141538
0.0156088
0.0469582
0.0788632
0.109804
0.137638
0.159606
0.172758
0.173804
0.15548
0.113668
-0.11949
-0.159311
-0.174929
-0.172776
-0.161157
-0.142934
-0.119762
-0.0927788
-0.0625779
-0.029447
0.00637495
0.0444769
0.084061
0.123712
0.16115
0.193108
0.215706
0.224112
0.208012
0.160761
-0.188745
-0.232201
-0.243961
-0.233971
-0.213706
-0.187161
-0.156376
-0.122503
-0.0858989
-0.0464724
-0.00401405
0.0415403
0.0898457
0.139836
0.189331
0.234712
0.271118
0.291712
0.281715
0.229949
-0.284126
-0.32928
-0.331865
-0.308306
-0.274719
-0.236445
-0.195767
-0.153611
-0.109841
-0.0637458
-0.0144387
0.0388626
0.0965545
0.158279
0.222382
0.285308
0.341442
0.381637
0.384916
0.332066
-0.419502
-0.45969
-0.4424
-0.395815
-0.342134
-0.28774
-0.234615
-0.182928
-0.131608
-0.0789851
-0.0232158
0.0374719
0.104549
0.178834
0.259861
0.34498
0.428655
0.499781
0.529743
0.485682
-0.620713
-0.636826
-0.578735
-0.494201
-0.411236
-0.335652
-0.267775
-0.205973
-0.147533
-0.0893826
-0.0284285
0.0383425
0.113798
0.20046
0.299963
0.412018
0.53304
0.651842
0.732914
0.722718
-0.935981
-0.878646
-0.74172
-0.597894
-0.474377
-0.372655
-0.288865
-0.21776
-0.153953
-0.0924651
-0.0287201
0.0416894
0.123253
0.220703
0.338909
0.482127
0.651912
0.841251
1.01543
1.09775
-1.47526
-1.20764
-0.920411
-0.691128
-0.517216
-0.387506
-0.29003
-0.213315
-0.148111
-0.0872111
-0.0245815
0.0454439
0.128912
0.233033
0.367058
0.542586
0.771007
1.05915
1.4044
1.729
-2.53191
-1.63659
-1.04494
-0.710327
-0.495411
-0.351876
-0.254355
-0.183454
-0.126086
-0.0735533
-0.0192712
0.0427466
0.119126
0.218646
0.354631
0.547704
0.825869
1.23722
1.91818
2.91571
-4.35534
-2.04834
-0.974024
-0.562962
-0.357952
-0.240323
-0.170248
-0.123868
-0.0875336
-0.0535347
-0.0166483
0.0276887
0.0846623
0.161819
0.27254
0.442193
0.718088
1.22626
2.41467
4.83684
)
;

boundaryField
{
    movingWall
    {
        type            zeroGradient;
    }
    fixedWalls
    {
        type            zeroGradient;
    }
    frontAndBack
    {
        type            empty;
    }
}


// ************************************************************************* //
