/*--------------------------------*- C++ -*----------------------------------*\
  =========                 |
  \\      /  F ield         | OpenFOAM: The Open Source CFD Toolbox
   \\    /   O peration     | Website:  https://openfoam.org
    \\  /    A nd           | Version:  6
     \\/     M anipulation  |
\*---------------------------------------------------------------------------*/
FoamFile
{
    version     2.0;
    format      ascii;
    class       surfaceScalarField;
    location    "0.4";
    object      phi;
}
// * * * * * * * * * * * * * * * * * * * * * * * * * * * * * * * * * * * * * //

dimensions      [0 3 -1 0 0 0 0];

internalField   nonuniform List<scalar> 
760
(
1.42358e-08
-1.42719e-08
-2.21729e-08
3.64087e-08
-1.14266e-07
9.20932e-08
-2.45514e-07
1.31248e-07
-3.96131e-07
1.50618e-07
-5.47408e-07
1.51277e-07
-6.8324e-07
1.35832e-07
-7.90717e-07
1.07477e-07
-8.60265e-07
6.95478e-08
-8.85701e-07
2.54356e-08
-8.64378e-07
-2.13218e-08
-7.97444e-07
-6.6934e-08
-6.90136e-07
-1.07309e-07
-5.52016e-07
-1.3812e-07
-3.96977e-07
-1.55039e-07
-2.42769e-07
-1.54209e-07
-1.09727e-07
-1.33042e-07
-1.83743e-08
-9.13524e-08
1.56825e-08
-3.40565e-08
1.56826e-08
-3.41901e-08
1.99183e-08
-1.80379e-07
1.82598e-07
-4.34004e-07
3.45718e-07
-7.64491e-07
4.61734e-07
-1.13232e-06
5.18451e-07
-1.49741e-06
5.16365e-07
-1.82355e-06
4.61975e-07
-2.08079e-06
3.64715e-07
-2.24656e-06
2.35313e-07
-2.30633e-06
8.52109e-08
-2.25419e-06
-7.34672e-08
-2.09331e-06
-2.27808e-07
-1.83649e-06
-3.64135e-07
-1.50622e-06
-4.6839e-07
-1.1342e-06
-5.27058e-07
-7.5958e-07
-5.28828e-07
-4.25415e-07
-4.67207e-07
-1.72697e-07
-3.44071e-07
-3.0764e-08
-1.75989e-07
-1.5081e-08
-9.22706e-08
1.12189e-07
-3.57043e-07
4.4737e-07
-7.64631e-07
7.53305e-07
-1.26861e-06
9.65712e-07
-1.81488e-06
1.06472e-06
-2.34929e-06
1.05077e-06
-2.82273e-06
9.3542e-07
-3.19429e-06
7.36269e-07
-3.43298e-06
4.7401e-07
-3.5189e-06
1.71127e-07
-3.44396e-06
-1.48413e-07
-3.21262e-06
-4.59148e-07
-2.84242e-06
-7.34328e-07
-2.36406e-06
-9.46749e-07
-1.82051e-06
-1.07061e-06
-1.26461e-06
-1.08472e-06
-7.54597e-07
-9.77226e-07
-3.47017e-07
-7.51651e-07
-8.7379e-08
-4.35627e-07
-1.0246e-07
-1.45244e-07
2.57432e-07
-5.25525e-07
8.27652e-07
-1.08174e-06
1.30952e-06
-1.74768e-06
1.63165e-06
-2.45457e-06
1.77161e-06
-3.13668e-06
1.73288e-06
-3.73565e-06
1.53439e-06
-4.20331e-06
1.20393e-06
-4.50336e-06
7.74054e-07
-4.61238e-06
2.80151e-07
-4.52071e-06
-2.40086e-07
-4.23316e-06
-7.46694e-07
-3.76975e-06
-1.19774e-06
-3.16597e-06
-1.55054e-06
-2.47214e-06
-1.76444e-06
-1.75125e-06
-1.8056e-06
-1.07463e-06
-1.65385e-06
-5.15205e-07
-1.31107e-06
-1.3935e-07
-8.11483e-07
-2.41809e-07
-1.93636e-07
4.51068e-07
-6.85072e-07
1.31909e-06
-1.38575e-06
2.0102e-06
-2.20745e-06
2.45334e-06
-3.06575e-06
2.62991e-06
-3.88413e-06
2.55126e-06
-4.59691e-06
2.24718e-06
-5.15104e-06
1.75806e-06
-5.50694e-06
1.12995e-06
-5.63903e-06
4.12245e-07
-5.53627e-06
-3.42854e-07
-5.20287e-06
-1.0801e-06
-4.65933e-06
-1.74127e-06
-3.94335e-06
-2.26652e-06
-3.11003e-06
-2.59777e-06
-2.23074e-06
-2.68489e-06
-1.38979e-06
-2.4948e-06
-6.78579e-07
-2.02229e-06
-1.87797e-07
-1.30226e-06
-4.29607e-07
-2.39968e-07
6.91035e-07
-8.40433e-07
1.91955e-06
-1.68345e-06
2.85322e-06
-2.6573e-06
3.42719e-06
-3.66116e-06
3.63377e-06
-4.60817e-06
3.49827e-06
-5.42682e-06
3.06583e-06
-6.06108e-06
2.39233e-06
-6.46991e-06
1.53878e-06
-6.62663e-06
5.68963e-07
-6.5189e-06
-4.5058e-07
-6.14937e-06
-1.44963e-06
-5.53707e-06
-2.35356e-06
-4.7194e-06
-3.08419e-06
-3.75386e-06
-3.56331e-06
-2.71878e-06
-3.71997e-06
-1.71174e-06
-3.50184e-06
-8.44765e-07
-2.88926e-06
-2.36214e-07
-1.91081e-06
-6.65821e-07
-2.86779e-07
9.77813e-07
-9.97188e-07
2.62996e-06
-1.98227e-06
3.8383e-06
-3.10523e-06
4.55015e-06
-4.24833e-06
4.77687e-06
-5.31527e-06
4.56521e-06
-6.23063e-06
3.98119e-06
-6.93774e-06
3.09944e-06
-7.39609e-06
1.99713e-06
-7.57925e-06
7.52125e-07
-7.4738e-06
-5.56029e-07
-7.07975e-06
-1.84368e-06
-6.4125e-06
-3.02082e-06
-5.50615e-06
-3.99054e-06
-4.41755e-06
-4.65191e-06
-3.22975e-06
-4.90776e-06
-2.05321e-06
-4.67838e-06
-1.02268e-06
-3.91979e-06
-2.88328e-07
-2.64516e-06
-9.5415e-07
-3.36374e-07
1.31419e-06
-1.1605e-06
3.45408e-06
-2.28825e-06
4.96605e-06
-3.55533e-06
5.81723e-06
-4.82704e-06
6.04858e-06
-5.99956e-06
5.73773e-06
-6.99658e-06
4.97821e-06
-7.76411e-06
3.86697e-06
-8.26511e-06
2.49813e-06
-8.47527e-06
9.62283e-07
-8.38064e-06
-6.5066e-07
-7.97758e-06
-2.24674e-06
-7.27526e-06
-3.72314e-06
-6.3006e-06
-4.9652e-06
-5.10525e-06
-5.84726e-06
-3.773e-06
-6.24001e-06
-2.42522e-06
-6.02616e-06
-1.22093e-06
-5.12408e-06
-3.47773e-07
-3.51832e-06
-1.30192e-06
-3.91014e-07
1.7052e-06
-1.33504e-06
4.39811e-06
-2.60525e-06
6.23626e-06
-4.00632e-06
7.2183e-06
-5.38727e-06
7.42953e-06
-6.64027e-06
6.99072e-06
-7.69299e-06
6.03094e-06
-8.49906e-06
4.67304e-06
-9.02904e-06
3.02811e-06
-9.26357e-06
1.19682e-06
-9.18933e-06
-7.24902e-07
-8.79819e-06
-2.63788e-06
-8.09009e-06
-4.43125e-06
-7.07974e-06
-5.97555e-06
-5.80699e-06
-7.12e-06
-4.34962e-06
-7.69739e-06
-2.83524e-06
-7.54055e-06
-1.44734e-06
-6.51198e-06
-4.1819e-07
-4.54747e-06
-1.72011e-06
-4.53529e-07
2.15873e-06
-1.52588e-06
5.47046e-06
-2.93521e-06
7.64559e-06
-4.45055e-06
8.73364e-06
-5.90682e-06
8.88581e-06
-7.19835e-06
8.28225e-06
-8.26422e-06
7.09681e-06
-9.07264e-06
5.48146e-06
-9.60747e-06
3.56294e-06
-9.85822e-06
1.44757e-06
-9.81409e-06
-7.69034e-07
-9.46209e-06
-2.98988e-06
-8.78986e-06
-5.10347e-06
-7.79378e-06
-6.97164e-06
-6.49297e-06
-8.42081e-06
-4.94866e-06
-9.2417e-06
-3.28565e-06
-9.20355e-06
-1.70901e-06
-8.08862e-06
-5.03714e-07
-5.75277e-06
-2.22383e-06
-5.28434e-07
2.68717e-06
-1.73991e-06
6.68194e-06
-3.27837e-06
9.18404e-06
-4.8721e-06
1.03274e-05
-6.34752e-06
1.03612e-05
-7.61133e-06
9.54606e-06
-8.62484e-06
8.11033e-06
-9.38016e-06
6.23678e-06
-9.88147e-06
4.06424e-06
-1.0132e-05
1.69814e-06
-1.01263e-05
-7.74737e-07
-9.84695e-06
-3.26926e-06
-9.26668e-06
-5.68374e-06
-8.3571e-06
-7.88122e-06
-7.1055e-06
-9.6724e-06
-5.54149e-06
-1.08057e-05
-3.77137e-06
-1.09737e-05
-2.01261e-06
-9.84738e-06
-6.09857e-07
-7.15551e-06
-2.83368e-06
-6.23781e-07
3.31095e-06
-1.9877e-06
8.04586e-06
-3.63238e-06
1.08287e-05
-5.24245e-06
1.19374e-05
-6.64807e-06
1.17668e-05
-7.78492e-06
1.06829e-05
-8.6514e-06
8.9768e-06
-9.27465e-06
6.86002e-06
-9.68686e-06
4.47645e-06
-9.91015e-06
1.92143e-06
-9.94761e-06
-7.37272e-07
-9.77905e-06
-3.43782e-06
-9.36146e-06
-6.10133e-06
-8.63631e-06
-8.60636e-06
-7.54719e-06
-1.07615e-05
-6.07244e-06
-1.22805e-05
-4.27505e-06
-1.2771e-05
-2.36419e-06
-1.17582e-05
-7.44978e-07
-8.77473e-06
-3.57866e-06
-7.54164e-07
4.06511e-06
-2.28471e-06
9.57641e-06
-3.98754e-06
1.25316e-05
-5.50963e-06
1.34595e-05
-6.71006e-06
1.29673e-05
-7.5789e-06
1.15517e-05
-8.17029e-06
9.56819e-06
-8.55778e-06
7.24752e-06
-8.80784e-06
4.72651e-06
-8.96515e-06
2.07875e-06
-9.04451e-06
-6.57915e-07
-9.02598e-06
-3.45636e-06
-8.85296e-06
-6.27435e-06
-8.43535e-06
-9.02397e-06
-7.6636e-06
-1.15333e-05
-6.44283e-06
-1.35012e-05
-4.75709e-06
-1.44568e-05
-2.76735e-06
-1.3748e-05
-9.22605e-07
-1.06195e-05
-4.50127e-06
-9.45102e-07
5.01021e-06
-2.64879e-06
1.12801e-05
-4.31151e-06
1.41943e-05
-5.57376e-06
1.47218e-05
-6.37099e-06
1.37645e-05
-6.7834e-06
1.19642e-05
-6.94047e-06
9.72526e-06
-6.96959e-06
7.27663e-06
-6.97256e-06
4.72948e-06
-7.01625e-06
2.12244e-06
-7.12837e-06
-5.45793e-07
-7.2936e-06
-3.29113e-06
-7.4486e-06
-6.11934e-06
-7.47803e-06
-8.99454e-06
-7.2183e-06
-1.1793e-05
-6.48334e-06
-1.42362e-05
-5.13413e-06
-1.5806e-05
-3.21544e-06
-1.56667e-05
-1.1643e-06
-1.26706e-05
-5.66556e-06
-1.23655e-06
6.24677e-06
-3.08322e-06
1.31268e-05
-4.50804e-06
1.56191e-05
-5.23471e-06
1.54485e-05
-5.35523e-06
1.3885e-05
-5.08164e-06
1.16906e-05
-4.63054e-06
9.27416e-06
-4.17878e-06
6.82487e-06
-3.85379e-06
4.40449e-06
-3.7364e-06
2.00506e-06
-3.8645e-06
-4.17694e-07
-4.23205e-06
-2.92358e-06
-4.78158e-06
-5.56981e-06
-5.3907e-06
-8.38542e-06
-5.85831e-06
-1.13254e-05
-5.90661e-06
-1.41879e-05
-5.23299e-06
-1.64796e-05
-3.66608e-06
-1.72336e-05
-1.49913e-06
-1.48376e-05
-7.1647e-06
-1.67129e-06
7.91806e-06
-3.51211e-06
1.49676e-05
-4.31503e-06
1.6422e-05
-4.0886e-06
1.5222e-05
-3.1926e-06
1.2989e-05
-1.99814e-06
1.04961e-05
-7.94417e-07
8.07044e-06
2.20164e-07
5.81029e-06
9.1913e-07
3.70552e-06
1.22656e-06
1.69763e-06
1.10305e-06
-2.94192e-07
5.42071e-07
-2.36259e-06
-4.21923e-07
-4.60582e-06
-1.69158e-06
-7.11576e-06
-3.07146e-06
-9.94551e-06
-4.2299e-06
-1.30295e-05
-4.69461e-06
-1.60149e-05
-3.96518e-06
-1.7963e-05
-1.94184e-06
-1.68609e-05
-9.10653e-06
-2.22282e-06
1.01409e-05
-3.58621e-06
1.6331e-05
-3.07644e-06
1.59122e-05
-1.34285e-06
1.34884e-05
8.98084e-07
1.07481e-05
3.15603e-06
8.23818e-06
5.13921e-06
6.08726e-06
6.68982e-06
4.25968e-06
7.727e-06
2.66834e-06
8.20777e-06
1.21686e-06
8.10517e-06
-1.91594e-07
7.40038e-06
-1.65781e-06
6.08829e-06
-3.29373e-06
4.20074e-06
-5.2282e-06
1.8559e-06
-7.60067e-06
-6.5966e-07
-1.05139e-05
-2.78934e-06
-1.38852e-05
-3.65618e-06
-1.70962e-05
-2.40209e-06
-1.8115e-05
-1.15086e-05
-2.54599e-06
1.26869e-05
-2.17785e-06
1.59628e-05
7.19297e-07
1.30151e-05
4.47087e-06
9.73686e-06
8.13473e-06
7.08422e-06
1.1303e-05
5.06989e-06
1.38305e-05
3.55978e-06
1.56895e-05
2.40071e-06
1.6893e-05
1.46477e-06
1.74563e-05
6.53626e-07
1.73778e-05
-1.1314e-07
1.66321e-05
-9.12043e-07
1.51689e-05
-1.83054e-06
1.29253e-05
-2.98467e-06
9.86372e-06
-4.53904e-06
6.0641e-06
-6.71429e-06
1.91507e-06
-9.73619e-06
-1.55179e-06
-1.36293e-05
-2.42765e-06
-1.72391e-05
-1.39363e-05
-8.39065e-07
1.35259e-05
4.07007e-06
1.10537e-05
1.02969e-05
6.78824e-06
1.57944e-05
4.23944e-06
2.01593e-05
2.7193e-06
2.34595e-05
1.76963e-06
2.58623e-05
1.15704e-06
2.75229e-05
7.40042e-07
2.85554e-05
4.32306e-07
2.90278e-05
1.81215e-07
2.89636e-05
-4.89258e-08
2.83402e-05
-2.887e-07
2.70834e-05
-5.73737e-07
2.50567e-05
-9.57926e-07
2.20531e-05
-1.5354e-06
1.78161e-05
-2.47733e-06
1.21714e-05
-4.09148e-06
5.46563e-06
-6.92358e-06
-1.88451e-07
-1.15851e-05
-1.41247e-05
1.35259e-05
2.45796e-05
3.13679e-05
3.56073e-05
3.83266e-05
4.00962e-05
4.12533e-05
4.19933e-05
4.24256e-05
4.26068e-05
4.25579e-05
4.22692e-05
4.16955e-05
4.07376e-05
3.92022e-05
3.67248e-05
3.26334e-05
2.57098e-05
1.41247e-05
)
;

boundaryField
{
    movingWall
    {
        type            calculated;
        value           uniform 0;
    }
    fixedWalls
    {
        type            calculated;
        value           uniform 0;
    }
    frontAndBack
    {
        type            empty;
        value           nonuniform 0();
    }
}


// ************************************************************************* //
