/*--------------------------------*- C++ -*----------------------------------*\
  =========                 |
  \\      /  F ield         | OpenFOAM: The Open Source CFD Toolbox
   \\    /   O peration     | Website:  https://openfoam.org
    \\  /    A nd           | Version:  6
     \\/     M anipulation  |
\*---------------------------------------------------------------------------*/
FoamFile
{
    version     2.0;
    format      ascii;
    class       volVectorField;
    location    "0.4";
    object      U;
}
// * * * * * * * * * * * * * * * * * * * * * * * * * * * * * * * * * * * * * //

dimensions      [0 1 -1 0 0 0 0];

internalField   nonuniform List<vector> 
400
(
(0.000251982 -0.000249404 0)
(0.000139556 0.000113177 0)
(-0.00117714 0.000567353 0)
(-0.00348121 0.000888227 0)
(-0.00637798 0.0010492 0)
(-0.00947021 0.00106522 0)
(-0.0124039 0.000960998 0)
(-0.014886 0.000762961 0)
(-0.0166907 0.000496302 0)
(-0.0176596 0.000185195 0)
(-0.0177035 -0.000145723 0)
(-0.0168064 -0.000469875 0)
(-0.0150313 -0.000757836 0)
(-0.0125262 -0.000977362 0)
(-0.00952725 -0.00109465 0)
(-0.00635554 -0.0010775 0)
(-0.00340076 -0.00090137 0)
(-0.00108672 -0.000559103 0)
(0.00019481 -9.19024e-05 0)
(0.000266599 0.000261472 0)
(-7.98105e-05 -0.000168167 0)
(-0.00161398 0.00164654 0)
(-0.00569292 0.00362048 0)
(-0.0117193 0.0050387 0)
(-0.018894 0.00574738 0)
(-0.0264036 0.00576432 0)
(-0.0334731 0.00517539 0)
(-0.0394318 0.00409549 0)
(-0.0437496 0.0026496 0)
(-0.0460532 0.000967698 0)
(-0.0461356 -0.000813732 0)
(-0.0439672 -0.00254883 0)
(-0.0397064 -0.0040815 0)
(-0.033707 -0.0052488 0)
(-0.0265166 -0.00589073 0)
(-0.0188565 -0.0058691 0)
(-0.0115673 -0.00509873 0)
(-0.00551337 -0.00359262 0)
(-0.00149537 -0.00156062 0)
(-4.47568e-05 0.000226321 0)
(-0.000532038 0.00109189 0)
(-0.00371528 0.00573611 0)
(-0.0105899 0.0102254 0)
(-0.0199935 0.0134092 0)
(-0.0307682 0.014948 0)
(-0.041827 0.0148405 0)
(-0.052126 0.0132572 0)
(-0.0607515 0.0104574 0)
(-0.0669777 0.00674283 0)
(-0.0702915 0.00243924 0)
(-0.0704095 -0.00210668 0)
(-0.0672929 -0.00652613 0)
(-0.0611601 -0.0104304 0)
(-0.0524951 -0.0134227 0)
(-0.0420423 -0.0151254 0)
(-0.0307776 -0.0152276 0)
(-0.0198311 -0.0135578 0)
(-0.0103646 -0.01018 0)
(-0.00355238 -0.00555085 0)
(-0.000480228 -0.000949149 0)
(-0.000932642 0.00348039 0)
(-0.00569657 0.0122208 0)
(-0.0153034 0.0199234 0)
(-0.0279197 0.0252006 0)
(-0.0419902 0.0276001 0)
(-0.0561855 0.0271406 0)
(-0.0692601 0.0241117 0)
(-0.080135 0.0189561 0)
(-0.0879585 0.0121971 0)
(-0.0921297 0.00440574 0)
(-0.0923144 -0.00380823 0)
(-0.0884609 -0.0117978 0)
(-0.0808148 -0.0188842 0)
(-0.0699316 -0.0243791 0)
(-0.0566763 -0.027631 0)
(-0.0422001 -0.0281052 0)
(-0.0278598 -0.0255008 0)
(-0.0150954 -0.0198936 0)
(-0.00551017 -0.0119278 0)
(-0.000866038 -0.0032254 0)
(-0.00128448 0.00687899 0)
(-0.00754237 0.0209548 0)
(-0.0198068 0.0325135 0)
(-0.0355386 0.0401077 0)
(-0.0527495 0.0432952 0)
(-0.0698665 0.0421977 0)
(-0.085473 0.0372819 0)
(-0.0983717 0.0292165 0)
(-0.107632 0.0187796 0)
(-0.112601 0.00681478 0)
(-0.11291 -0.00578074 0)
(-0.108487 -0.0180565 0)
(-0.0995741 -0.0290146 0)
(-0.0867498 -0.0376371 0)
(-0.0709446 -0.0429501 0)
(-0.0534371 -0.0441343 0)
(-0.0357888 -0.0406837 0)
(-0.0197374 -0.0325959 0)
(-0.00737713 -0.0205918 0)
(-0.00120936 -0.00649936 0)
(-0.00161434 0.0112174 0)
(-0.00932573 0.0318768 0)
(-0.0242115 0.0479563 0)
(-0.0430069 0.0580779 0)
(-0.0632638 0.0619436 0)
(-0.0831617 0.0598874 0)
(-0.101135 0.0526338 0)
(-0.115904 0.0411302 0)
(-0.126501 0.0264401 0)
(-0.132251 0.00969431 0)
(-0.132763 -0.00791663 0)
(-0.127936 -0.0251342 0)
(-0.117979 -0.0406288 0)
(-0.103445 -0.0530247 0)
(-0.0852789 -0.0609727 0)
(-0.0648435 -0.0632871 0)
(-0.0438905 -0.0591486 0)
(-0.0244803 -0.0483493 0)
(-0.00926251 -0.0315598 0)
(-0.00154491 -0.0107304 0)
(-0.00194822 0.0164794 0)
(-0.0111304 0.0449775 0)
(-0.0286528 0.0662392 0)
(-0.0504843 0.0790668 0)
(-0.073692 0.0834541 0)
(-0.0962126 0.0800815 0)
(-0.116362 0.0700308 0)
(-0.132826 0.05459 0)
(-0.144644 0.0351353 0)
(-0.151155 0.0130865 0)
(-0.151963 -0.0100866 0)
(-0.146929 -0.0328347 0)
(-0.136194 -0.0535038 0)
(-0.120235 -0.070343 0)
(-0.0999436 -0.081573 0)
(-0.0767104 -0.0855414 0)
(-0.0524461 -0.0809723 0)
(-0.0295481 -0.0672838 0)
(-0.0112938 -0.0449432 0)
(-0.00190894 -0.0159542 0)
(-0.00230969 0.0226979 0)
(-0.0130358 0.0603053 0)
(-0.0332535 0.0873709 0)
(-0.0580845 0.103005 0)
(-0.084082 0.107674 0)
(-0.108962 0.10257 0)
(-0.130978 0.0892514 0)
(-0.148845 0.0694166 0)
(-0.161678 0.0447758 0)
(-0.16888 0.0170222 0)
(-0.170076 -0.0121332 0)
(-0.165084 -0.0408951 0)
(-0.153943 -0.0673186 0)
(-0.136983 -0.0892798 0)
(-0.114955 -0.104521 0)
(-0.0891862 -0.110807 0)
(-0.0616778 -0.106223 0)
(-0.0351525 -0.0895886 0)
(-0.0135984 -0.060955 0)
(-0.0023372 -0.0222812 0)
(-0.00272298 0.0299507 0)
(-0.0151207 0.0779623 0)
(-0.0381179 0.111365 0)
(-0.0658537 0.12976 0)
(-0.0943347 0.134327 0)
(-0.121108 0.126983 0)
(-0.144453 0.10991 0)
(-0.163224 0.0852879 0)
(-0.176698 0.0551717 0)
(-0.184418 0.0214898 0)
(-0.18607 -0.0138738 0)
(-0.181435 -0.0489579 0)
(-0.170408 -0.0815972 0)
(-0.153094 -0.10933 0)
(-0.129984 -0.12939 0)
(-0.102198 -0.13884 0)
(-0.0716983 -0.1349 0)
(-0.0414725 -0.115481 0)
(-0.0163036 -0.0799032 0)
(-0.00286796 -0.0298947 0)
(-0.00322097 0.0383644 0)
(-0.0174813 0.0980969 0)
(-0.0433452 0.1382 0)
(-0.0737631 0.159057 0)
(-0.104169 0.162912 0)
(-0.132042 0.152682 0)
(-0.155836 0.131349 0)
(-0.174689 0.101647 0)
(-0.188178 0.0659626 0)
(-0.196079 0.026393 0)
(-0.198198 -0.015111 0)
(-0.194296 -0.0565457 0)
(-0.184095 -0.0956449 0)
(-0.167381 -0.129695 0)
(-0.14423 -0.155433 0)
(-0.115353 -0.16911 0)
(-0.0824569 -0.166818 0)
(-0.0486436 -0.145139 0)
(-0.0195482 -0.102171 0)
(-0.00354975 -0.0390543 0)
(-0.00385958 0.0481352 0)
(-0.0202643 0.120904 0)
(-0.0490521 0.167765 0)
(-0.0816944 0.190379 0)
(-0.113063 0.192569 0)
(-0.140757 0.178625 0)
(-0.163632 0.15252 0)
(-0.181319 0.117599 0)
(-0.193856 0.0765401 0)
(-0.20137 0.0314983 0)
(-0.203867 -0.0156562 0)
(-0.201121 -0.0630495 0)
(-0.192662 -0.108493 0)
(-0.177872 -0.149176 0)
(-0.15624 -0.181424 0)
(-0.127796 -0.20062 0)
(-0.0936578 -0.201443 0)
(-0.056743 -0.178593 0)
(-0.0235039 -0.128188 0)
(-0.00445518 -0.0501144 0)
(-0.00474352 0.0595799 0)
(-0.0237161 0.146631 0)
(-0.0553901 0.199772 0)
(-0.0893859 0.222805 0)
(-0.120133 0.221904 0)
(-0.145686 0.203197 0)
(-0.16564 0.171847 0)
(-0.180379 0.131816 0)
(-0.190589 0.0859749 0)
(-0.196871 0.0363809 0)
(-0.19951 -0.0153669 0)
(-0.198345 -0.0677405 0)
(-0.192728 -0.118866 0)
(-0.181587 -0.166081 0)
(-0.163661 -0.205496 0)
(-0.137984 -0.231675 0)
(-0.104611 -0.237645 0)
(-0.0657459 -0.215549 0)
(-0.0284067 -0.158389 0)
(-0.00570544 -0.063566 0)
(-0.00607174 0.0732394 0)
(-0.0282498 0.175582 0)
(-0.062517 0.23359 0)
(-0.0962675 0.254762 0)
(-0.123868 0.248742 0)
(-0.144407 0.224034 0)
(-0.158677 0.187113 0)
(-0.168112 0.142467 0)
(-0.174205 0.0929733 0)
(-0.178122 0.0403836 0)
(-0.180488 -0.0141939 0)
(-0.18127 -0.069817 0)
(-0.179702 -0.125208 0)
(-0.17428 -0.17818 0)
(-0.162908 -0.224978 0)
(-0.143333 -0.2596 0)
(-0.113953 -0.27335 0)
(-0.0754066 -0.255095 0)
(-0.0345888 -0.19312 0)
(-0.00751247 -0.0801222 0)
(-0.00821126 0.0900583 0)
(-0.0345051 0.208046 0)
(-0.07042 0.267907 0)
(-0.101033 0.283621 0)
(-0.121583 0.26982 0)
(-0.133113 0.237846 0)
(-0.138165 0.195408 0)
(-0.139462 0.147236 0)
(-0.139365 0.0959124 0)
(-0.139592 0.0426237 0)
(-0.141106 -0.0122279 0)
(-0.144053 -0.0685014 0)
(-0.147669 -0.125789 0)
(-0.150172 -0.182766 0)
(-0.148727 -0.236325 0)
(-0.139654 -0.280455 0)
(-0.119107 -0.305045 0)
(-0.0849469 -0.295192 0)
(-0.0424699 -0.232417 0)
(-0.0102407 -0.100857 0)
(-0.0117763 0.111642 0)
(-0.043268 0.243995 0)
(-0.0782997 0.300062 0)
(-0.100634 0.305106 0)
(-0.108355 0.280466 0)
(-0.10573 0.240384 0)
(-0.097525 0.193281 0)
(-0.0877637 0.143549 0)
(-0.0794918 0.0930376 0)
(-0.0747749 0.0420984 0)
(-0.074792 -0.00972365 0)
(-0.07988 -0.0632046 0)
(-0.0894532 -0.118983 0)
(-0.101781 -0.176951 0)
(-0.113682 -0.235282 0)
(-0.120305 -0.288886 0)
(-0.115266 -0.327212 0)
(-0.0922659 -0.331831 0)
(-0.0523238 -0.275453 0)
(-0.0144412 -0.127361 0)
(-0.0175234 0.140639 0)
(-0.054727 0.282198 0)
(-0.0827728 0.324755 0)
(-0.0880781 0.312484 0)
(-0.0751025 0.274457 0)
(-0.0525812 0.226769 0)
(-0.0274461 0.177286 0)
(-0.00450023 0.129134 0)
(0.0131148 0.082913 0)
(0.0234572 0.0379493 0)
(0.0254167 -0.00706892 0)
(0.0185263 -0.053752 0)
(0.0029989 -0.103744 0)
(-0.019978 -0.158313 0)
(-0.0476672 -0.217497 0)
(-0.0749669 -0.278362 0)
(-0.0935299 -0.331805 0)
(-0.0920355 -0.357727 0)
(-0.0632261 -0.319362 0)
(-0.020601 -0.161955 0)
(-0.0253194 0.18158 0)
(-0.0656127 0.317912 0)
(-0.0732939 0.331442 0)
(-0.0480632 0.295411 0)
(-0.00555786 0.244207 0)
(0.0412397 0.192374 0)
(0.0846738 0.145041 0)
(0.120558 0.102967 0)
(0.146724 0.0651357 0)
(0.16207 0.0298921 0)
(0.165965 -0.00466809 0)
(0.157961 -0.0406225 0)
(0.137759 -0.0802386 0)
(0.105469 -0.12591 0)
(0.0622947 -0.179721 0)
(0.0118438 -0.242022 0)
(-0.0377919 -0.3079 0)
(-0.071612 -0.36024 0)
(-0.0698433 -0.356769 0)
(-0.0277542 -0.208216 0)
(-0.0291841 0.238712 0)
(-0.0603441 0.336126 0)
(-0.0219241 0.300683 0)
(0.0505349 0.240154 0)
(0.127602 0.182945 0)
(0.197039 0.135383 0)
(0.254365 0.0973928 0)
(0.298277 0.0668463 0)
(0.328851 0.0413527 0)
(0.346494 0.0187783 0)
(0.351404 -0.00279202 0)
(0.343332 -0.0252612 0)
(0.3215 -0.0507826 0)
(0.284677 -0.0820433 0)
(0.231612 -0.122445 0)
(0.162225 -0.175679 0)
(0.0799122 -0.243481 0)
(-0.00314618 -0.31934 0)
(-0.0540663 -0.368977 0)
(-0.0279169 -0.267079 0)
(0.00929 0.281225 0)
(0.0209551 0.29507 0)
(0.138932 0.211095 0)
(0.264367 0.14354 0)
(0.364388 0.0972365 0)
(0.440397 0.0658227 0)
(0.496772 0.0442738 0)
(0.536901 0.0289125 0)
(0.563473 0.0172165 0)
(0.578332 0.00749443 0)
(0.582407 -0.00149239 0)
(0.575723 -0.0108512 0)
(0.557338 -0.021862 0)
(0.525167 -0.036361 0)
(0.475812 -0.0572987 0)
(0.40456 -0.0894378 0)
(0.305078 -0.139818 0)
(0.173256 -0.216513 0)
(0.042434 -0.311713 0)
(0.019755 -0.299316 0)
(0.300604 0.145805 0)
(0.397328 0.127343 0)
(0.557427 0.0760848 0)
(0.674454 0.0437639 0)
(0.743907 0.0256216 0)
(0.787166 0.0152888 0)
(0.81549 0.00925051 0)
(0.833959 0.00553757 0)
(0.845389 0.00304586 0)
(0.851375 0.00115931 0)
(0.85267 -0.000498104 0)
(0.849387 -0.00222186 0)
(0.841004 -0.00435438 0)
(0.826146 -0.00745025 0)
(0.802088 -0.0125691 0)
(0.763633 -0.0218183 0)
(0.69906 -0.0393281 0)
(0.583901 -0.0726589 0)
(0.416852 -0.127687 0)
(0.309851 -0.149194 0)
)
;

boundaryField
{
    movingWall
    {
        type            fixedValue;
        value           uniform (1 0 0);
    }
    fixedWalls
    {
        type            noSlip;
    }
    frontAndBack
    {
        type            empty;
    }
}


// ************************************************************************* //
