/*--------------------------------*- C++ -*----------------------------------*\
  =========                 |
  \\      /  F ield         | OpenFOAM: The Open Source CFD Toolbox
   \\    /   O peration     | Website:  https://openfoam.org
    \\  /    A nd           | Version:  6
     \\/     M anipulation  |
\*---------------------------------------------------------------------------*/
FoamFile
{
    version     2.0;
    format      ascii;
    class       volScalarField;
    location    "0.3";
    object      p;
}
// * * * * * * * * * * * * * * * * * * * * * * * * * * * * * * * * * * * * * //

dimensions      [0 2 -2 0 0 0 0];

internalField   nonuniform List<scalar> 
400
(
3.78319e-06
-0.00580444
-0.0129419
-0.0183957
-0.0204118
-0.0182176
-0.0117543
-0.00146696
0.0118501
0.0271572
0.0432475
0.0588215
0.0725732
0.0833003
0.0900434
0.0922582
0.0900184
0.0842346
0.0768748
0.0710773
0.00576834
-0.000211808
-0.00580702
-0.00954975
-0.010607
-0.0084405
-0.00297641
0.00547006
0.0163021
0.0287147
0.0417569
0.0543971
0.0656012
0.0744274
0.0801394
0.0823353
0.081096
0.0770694
0.0712796
0.0653402
0.0133219
0.00504801
-0.000991186
-0.00442067
-0.00526949
-0.00326007
0.00160649
0.00903206
0.0185069
0.0293545
0.040771
0.0518757
0.0617751
0.0696435
0.0748146
0.0768862
0.0758508
0.0720934
0.0658029
0.05756
0.0201246
0.00871527
0.00123078
-0.00266556
-0.00371766
-0.00188033
0.00273646
0.00978994
0.0187859
0.0291006
0.0399975
0.0506597
0.0602388
0.0679222
0.0730098
0.0750088
0.0737746
0.0694629
0.061595
0.0501283
0.024482
0.00979617
0.000593526
-0.00398592
-0.00529946
-0.00350393
0.00117851
0.00833885
0.0174668
0.0279545
0.039091
0.0500765
0.0600561
0.0681729
0.0736348
0.075807
0.0743801
0.0692979
0.0595133
0.0445681
0.0251523
0.00717738
-0.0037989
-0.00905758
-0.0105103
-0.00849732
-0.00335364
0.00443329
0.014318
0.0256845
0.0378201
0.0499105
0.0610561
0.070312
0.0767443
0.0795276
0.078152
0.0723427
0.0605223
0.0419273
0.0210624
-0.000230407
-0.0129319
-0.018711
-0.0200288
-0.0174118
-0.0113156
-0.00231604
0.00899502
0.0219818
0.0359162
0.049952
0.0631209
0.0743551
0.0825327
0.0865817
0.0857361
0.0794576
0.0655983
0.0431159
0.011106
-0.0135815
-0.0278733
-0.0338575
-0.0346035
-0.0308561
-0.0232106
-0.0123418
0.00110935
0.0164895
0.0330594
0.0499417
0.0660929
0.0803008
0.091213
0.0974442
0.0978885
0.0916486
0.0758689
0.0491689
-0.00601077
-0.0342252
-0.0498698
-0.055554
-0.0550915
-0.0495142
-0.0395919
-0.0261104
-0.00975282
0.00882857
0.0289079
0.0496019
0.0698076
0.0881665
0.103061
0.112718
0.115573
0.110207
0.0928016
0.0614743
-0.0319097
-0.0638307
-0.080419
-0.0850154
-0.0824232
-0.0740791
-0.0609802
-0.0440343
-0.0239476
-0.00133162
0.0231523
0.0486693
0.0741059
0.0979849
0.118411
0.133145
0.140015
0.136838
0.118403
0.0820112
-0.0687327
-0.104555
-0.12135
-0.123602
-0.117521
-0.105129
-0.0877185
-0.0663239
-0.0416338
-0.0141509
0.0156117
0.046961
0.0788657
0.109806
0.13764
0.159607
0.172759
0.173805
0.155481
0.113669
-0.119487
-0.159308
-0.174927
-0.172773
-0.161155
-0.142932
-0.11976
-0.0927761
-0.0625749
-0.0294438
0.00637821
0.0444801
0.0840638
0.123715
0.161152
0.19311
0.215707
0.224113
0.208012
0.160761
-0.18874
-0.232197
-0.243958
-0.233969
-0.213703
-0.187158
-0.156374
-0.1225
-0.0858958
-0.0464691
-0.00401069
0.0415436
0.0898486
0.139839
0.189333
0.234713
0.271119
0.291712
0.281715
0.229949
-0.284121
-0.329276
-0.331862
-0.308304
-0.274717
-0.236443
-0.195765
-0.153609
-0.109838
-0.0637426
-0.0144355
0.0388658
0.0965573
0.158282
0.222384
0.285309
0.341443
0.381638
0.384916
0.332064
-0.419497
-0.459686
-0.442398
-0.395813
-0.342133
-0.287738
-0.234613
-0.182926
-0.131606
-0.0789823
-0.0232128
0.0374747
0.104551
0.178836
0.259862
0.344981
0.428656
0.499781
0.529742
0.485679
-0.620708
-0.636823
-0.578733
-0.4942
-0.411235
-0.335652
-0.267774
-0.205972
-0.147531
-0.0893801
-0.0284259
0.0383449
0.1138
0.200461
0.299965
0.412019
0.53304
0.651841
0.732913
0.722715
-0.935977
-0.878644
-0.741719
-0.597894
-0.474377
-0.372655
-0.288865
-0.21776
-0.153951
-0.0924632
-0.0287179
0.0416915
0.123255
0.220705
0.33891
0.482127
0.651911
0.841251
1.01542
1.09774
-1.47526
-1.20764
-0.920411
-0.691129
-0.517218
-0.387508
-0.290031
-0.213315
-0.148111
-0.0872098
-0.0245797
0.0454459
0.128914
0.233034
0.367058
0.542586
0.771006
1.05915
1.4044
1.72899
-2.53191
-1.63659
-1.04494
-0.710329
-0.495413
-0.351879
-0.254357
-0.183455
-0.126086
-0.0735525
-0.0192696
0.0427486
0.119128
0.218648
0.354632
0.547704
0.825869
1.23722
1.91818
2.9157
-4.35534
-2.04834
-0.974027
-0.562965
-0.357955
-0.240327
-0.170251
-0.12387
-0.0875345
-0.0535343
-0.0166468
0.027691
0.0846651
0.161822
0.272542
0.442195
0.718089
1.22626
2.41467
4.83684
)
;

boundaryField
{
    movingWall
    {
        type            zeroGradient;
    }
    fixedWalls
    {
        type            zeroGradient;
    }
    frontAndBack
    {
        type            empty;
    }
}


// ************************************************************************* //
