/*--------------------------------*- C++ -*----------------------------------*\
  =========                 |
  \\      /  F ield         | OpenFOAM: The Open Source CFD Toolbox
   \\    /   O peration     | Website:  https://openfoam.org
    \\  /    A nd           | Version:  6
     \\/     M anipulation  |
\*---------------------------------------------------------------------------*/
FoamFile
{
    version     2.0;
    format      ascii;
    class       surfaceScalarField;
    location    "0.3";
    object      phi;
}
// * * * * * * * * * * * * * * * * * * * * * * * * * * * * * * * * * * * * * //

dimensions      [0 3 -1 0 0 0 0];

internalField   nonuniform List<scalar> 
760
(
1.42356e-08
-1.42674e-08
-2.21708e-08
3.64068e-08
-1.14255e-07
9.20845e-08
-2.4549e-07
1.31235e-07
-3.96091e-07
1.50602e-07
-5.47352e-07
1.51261e-07
-6.83169e-07
1.35818e-07
-7.90635e-07
1.07466e-07
-8.60176e-07
6.95406e-08
-8.85609e-07
2.54332e-08
-8.6429e-07
-2.13191e-08
-7.97364e-07
-6.69263e-08
-6.90068e-07
-1.07297e-07
-5.51963e-07
-1.38105e-07
-3.96941e-07
-1.55023e-07
-2.42748e-07
-1.54194e-07
-1.09719e-07
-1.3303e-07
-1.83743e-08
-9.1345e-08
1.56803e-08
-3.40548e-08
1.56802e-08
-3.41864e-08
1.99182e-08
-1.8036e-07
1.82581e-07
-4.33959e-07
3.45683e-07
-7.6441e-07
4.61686e-07
-1.1322e-06
5.18395e-07
-1.49725e-06
5.1631e-07
-1.82336e-06
4.61926e-07
-2.08057e-06
3.64677e-07
-2.24632e-06
2.35289e-07
-2.30609e-06
8.52039e-08
-2.25395e-06
-7.34567e-08
-2.0931e-06
-2.27781e-07
-1.8363e-06
-3.64094e-07
-1.50607e-06
-4.68339e-07
-1.13409e-06
-5.27002e-07
-7.59509e-07
-5.28774e-07
-4.25377e-07
-4.67162e-07
-1.72682e-07
-3.4404e-07
-3.07618e-08
-1.75975e-07
-1.50814e-08
-9.22611e-08
1.12178e-07
-3.57005e-07
4.47325e-07
-7.6455e-07
7.53228e-07
-1.26848e-06
9.65611e-07
-1.81469e-06
1.06461e-06
-2.34905e-06
1.05066e-06
-2.82244e-06
9.35322e-07
-3.19396e-06
7.36193e-07
-3.43263e-06
4.73963e-07
-3.51854e-06
1.71114e-07
-3.44361e-06
-1.48391e-07
-3.2123e-06
-4.59094e-07
-2.84214e-06
-7.34246e-07
-2.36383e-06
-9.46647e-07
-1.82034e-06
-1.0705e-06
-1.2645e-06
-1.08461e-06
-7.54528e-07
-9.77132e-07
-3.46986e-07
-7.51582e-07
-8.73713e-08
-4.35589e-07
-1.02452e-07
-1.45229e-07
2.57406e-07
-5.25472e-07
8.27569e-07
-1.08163e-06
1.30939e-06
-1.74751e-06
1.63148e-06
-2.45433e-06
1.77143e-06
-3.13637e-06
1.73271e-06
-3.73529e-06
1.53424e-06
-4.20291e-06
1.20381e-06
-4.50292e-06
7.73982e-07
-4.61194e-06
2.80131e-07
-4.52028e-06
-2.4005e-07
-4.23277e-06
-7.46607e-07
-3.76941e-06
-1.19761e-06
-3.16568e-06
-1.55037e-06
-2.47192e-06
-1.76427e-06
-1.7511e-06
-1.80543e-06
-1.07453e-06
-1.6537e-06
-5.15161e-07
-1.31096e-06
-1.39338e-07
-8.11413e-07
-2.41789e-07
-1.93618e-07
4.51023e-07
-6.85011e-07
1.31896e-06
-1.38563e-06
2.01001e-06
-2.20725e-06
2.4531e-06
-3.06548e-06
2.62965e-06
-3.88379e-06
2.55102e-06
-4.59651e-06
2.24696e-06
-5.1506e-06
1.75789e-06
-5.50647e-06
1.12985e-06
-5.63856e-06
4.12219e-07
-5.5358e-06
-3.42804e-07
-5.20243e-06
-1.07997e-06
-4.65895e-06
-1.74109e-06
-3.94304e-06
-2.26629e-06
-3.10978e-06
-2.59752e-06
-2.23056e-06
-2.68465e-06
-1.38968e-06
-2.49458e-06
-6.78527e-07
-2.02211e-06
-1.87783e-07
-1.30216e-06
-4.29572e-07
-2.39949e-07
6.90972e-07
-8.40369e-07
1.91938e-06
-1.68332e-06
2.85296e-06
-2.6571e-06
3.42689e-06
-3.66089e-06
3.63344e-06
-4.60783e-06
3.49795e-06
-5.42642e-06
3.06555e-06
-6.06064e-06
2.39212e-06
-6.46944e-06
1.53865e-06
-6.62615e-06
5.68931e-07
-6.51844e-06
-4.50517e-07
-6.14894e-06
-1.44947e-06
-5.53669e-06
-2.35333e-06
-4.71908e-06
-3.08391e-06
-3.75361e-06
-3.56299e-06
-2.7186e-06
-3.71965e-06
-1.71163e-06
-3.50155e-06
-8.4471e-07
-2.88903e-06
-2.36199e-07
-1.91067e-06
-6.65771e-07
-2.86761e-07
9.77732e-07
-9.97129e-07
2.62975e-06
-1.98216e-06
3.83799e-06
-3.10505e-06
4.54978e-06
-4.24808e-06
4.77647e-06
-5.31496e-06
4.56483e-06
-6.23027e-06
3.98086e-06
-6.93734e-06
3.09919e-06
-7.39567e-06
1.99698e-06
-7.57883e-06
7.52087e-07
-7.47339e-06
-5.55953e-07
-7.07937e-06
-1.8435e-06
-6.41215e-06
-3.02054e-06
-5.50586e-06
-3.9902e-06
-4.41732e-06
-4.65153e-06
-3.22959e-06
-4.90738e-06
-2.05311e-06
-4.67804e-06
-1.02262e-06
-3.91951e-06
-2.88314e-07
-2.64498e-06
-9.54084e-07
-3.3636e-07
1.31409e-06
-1.16045e-06
3.45384e-06
-2.28815e-06
4.9657e-06
-3.55518e-06
5.81681e-06
-4.82685e-06
6.04814e-06
-5.99931e-06
5.7373e-06
-6.99629e-06
4.97784e-06
-7.7638e-06
3.86669e-06
-8.26478e-06
2.49796e-06
-8.47493e-06
9.6224e-07
-8.38031e-06
-6.50575e-07
-7.97727e-06
-2.24653e-06
-7.27498e-06
-3.72283e-06
-6.30037e-06
-4.96481e-06
-5.10507e-06
-5.84683e-06
-3.77287e-06
-6.23958e-06
-2.42514e-06
-6.02577e-06
-1.22089e-06
-5.12376e-06
-3.47761e-07
-3.51811e-06
-1.30184e-06
-3.91006e-07
1.7051e-06
-1.33501e-06
4.39785e-06
-2.60519e-06
6.23587e-06
-4.00623e-06
7.21785e-06
-5.38715e-06
7.42905e-06
-6.64011e-06
6.99026e-06
-7.69281e-06
6.03054e-06
-8.49885e-06
4.67273e-06
-9.02882e-06
3.02793e-06
-9.26335e-06
1.19677e-06
-9.18912e-06
-7.24812e-07
-8.79799e-06
-2.63766e-06
-8.08991e-06
-4.43092e-06
-7.07958e-06
-5.97514e-06
-5.80687e-06
-7.11954e-06
-4.34953e-06
-7.69692e-06
-2.83518e-06
-7.54012e-06
-1.44731e-06
-6.51163e-06
-4.18182e-07
-4.54723e-06
-1.72003e-06
-4.53527e-07
2.15862e-06
-1.52587e-06
5.47019e-06
-2.9352e-06
7.64519e-06
-4.45052e-06
8.73317e-06
-5.90678e-06
8.88532e-06
-7.1983e-06
8.28178e-06
-8.26415e-06
7.0964e-06
-9.07257e-06
5.48115e-06
-9.60739e-06
3.56275e-06
-9.85814e-06
1.44752e-06
-9.81401e-06
-7.68944e-07
-9.46201e-06
-2.98965e-06
-8.78979e-06
-5.10314e-06
-7.79371e-06
-6.97121e-06
-6.49292e-06
-8.42034e-06
-4.94862e-06
-9.24122e-06
-3.28563e-06
-9.20311e-06
-1.709e-06
-8.08826e-06
-5.0371e-07
-5.75252e-06
-2.22374e-06
-5.28438e-07
2.68706e-06
-1.73993e-06
6.68168e-06
-3.27839e-06
9.18366e-06
-4.87214e-06
1.03269e-05
-6.34757e-06
1.03607e-05
-7.61138e-06
9.5456e-06
-8.62491e-06
8.10992e-06
-9.38023e-06
6.23647e-06
-9.88154e-06
4.06406e-06
-1.01321e-05
1.69809e-06
-1.01264e-05
-7.74652e-07
-9.847e-06
-3.26904e-06
-9.26672e-06
-5.68341e-06
-8.35713e-06
-7.88081e-06
-7.10552e-06
-9.67194e-06
-5.5415e-06
-1.08052e-05
-3.77138e-06
-1.09732e-05
-2.01261e-06
-9.84703e-06
-6.09857e-07
-7.15527e-06
-2.83359e-06
-6.23792e-07
3.31086e-06
-1.98774e-06
8.04563e-06
-3.63245e-06
1.08284e-05
-5.24255e-06
1.1937e-05
-6.64821e-06
1.17664e-05
-7.78509e-06
1.06825e-05
-8.65159e-06
8.97643e-06
-9.27485e-06
6.85973e-06
-9.68707e-06
4.47628e-06
-9.91036e-06
1.92138e-06
-9.94781e-06
-7.37196e-07
-9.77923e-06
-3.43763e-06
-9.36162e-06
-6.10103e-06
-8.63644e-06
-8.60598e-06
-7.54728e-06
-1.07611e-05
-6.0725e-06
-1.228e-05
-4.27509e-06
-1.27706e-05
-2.36421e-06
-1.17579e-05
-7.44983e-07
-8.7745e-06
-3.57858e-06
-7.5418e-07
4.06504e-06
-2.28476e-06
9.57621e-06
-3.98764e-06
1.25313e-05
-5.50978e-06
1.34592e-05
-6.71026e-06
1.29669e-05
-7.57915e-06
1.15514e-05
-8.17058e-06
9.56786e-06
-8.5581e-06
7.24725e-06
-8.80817e-06
4.72635e-06
-8.96549e-06
2.0787e-06
-9.04483e-06
-6.57852e-07
-9.02627e-06
-3.45618e-06
-8.85322e-06
-6.27408e-06
-8.43556e-06
-9.02364e-06
-7.66377e-06
-1.15329e-05
-6.44295e-06
-1.35008e-05
-4.75716e-06
-1.44564e-05
-2.76738e-06
-1.37477e-05
-9.22613e-07
-1.06193e-05
-4.50119e-06
-9.45121e-07
5.01016e-06
-2.64885e-06
1.12799e-05
-4.31164e-06
1.4194e-05
-5.57395e-06
1.47215e-05
-6.37124e-06
1.37642e-05
-6.78372e-06
1.19638e-05
-6.94083e-06
9.72497e-06
-6.96999e-06
7.27641e-06
-6.97298e-06
4.72934e-06
-7.01667e-06
2.12239e-06
-7.12878e-06
-5.45743e-07
-7.29398e-06
-3.29099e-06
-7.44894e-06
-6.11912e-06
-7.47831e-06
-8.99426e-06
-7.21852e-06
-1.17927e-05
-6.48349e-06
-1.42359e-05
-5.13422e-06
-1.58057e-05
-3.21548e-06
-1.56664e-05
-1.16431e-06
-1.26704e-05
-5.6655e-06
-1.23657e-06
6.24673e-06
-3.08329e-06
1.31267e-05
-4.50817e-06
1.56189e-05
-5.23491e-06
1.54482e-05
-5.3555e-06
1.38848e-05
-5.08199e-06
1.16903e-05
-4.63094e-06
9.27393e-06
-4.17923e-06
6.82469e-06
-3.85426e-06
4.40437e-06
-3.73688e-06
2.00502e-06
-3.86497e-06
-4.17659e-07
-4.23248e-06
-2.92347e-06
-4.78196e-06
-5.56964e-06
-5.39102e-06
-8.3852e-06
-5.85856e-06
-1.13251e-05
-5.90679e-06
-1.41877e-05
-5.2331e-06
-1.64794e-05
-3.66613e-06
-1.72334e-05
-1.49915e-06
-1.48374e-05
-7.16465e-06
-1.67131e-06
7.91804e-06
-3.51217e-06
1.49675e-05
-4.31516e-06
1.64219e-05
-4.08879e-06
1.52219e-05
-3.19286e-06
1.29888e-05
-1.99847e-06
1.04959e-05
-7.94816e-07
8.07027e-06
2.19717e-07
5.81016e-06
9.18653e-07
3.70544e-06
1.22607e-06
1.6976e-06
1.10258e-06
-2.94168e-07
5.41628e-07
-2.36252e-06
-4.22317e-07
-4.6057e-06
-1.69191e-06
-7.1156e-06
-3.07171e-06
-9.94534e-06
-4.23008e-06
-1.30293e-05
-4.69472e-06
-1.60147e-05
-3.96524e-06
-1.79629e-05
-1.94185e-06
-1.68608e-05
-9.1065e-06
-2.22283e-06
1.01409e-05
-3.58626e-06
1.6331e-05
-3.07654e-06
1.59122e-05
-1.34301e-06
1.34883e-05
8.97853e-07
1.0748e-05
3.15573e-06
8.23806e-06
5.13885e-06
6.08715e-06
6.68941e-06
4.25959e-06
7.72656e-06
2.66829e-06
8.20732e-06
1.21684e-06
8.10473e-06
-1.91579e-07
7.39997e-06
-1.65776e-06
6.08793e-06
-3.29365e-06
4.20043e-06
-5.22811e-06
1.85565e-06
-7.60056e-06
-6.59834e-07
-1.05138e-05
-2.78945e-06
-1.38851e-05
-3.65623e-06
-1.70961e-05
-2.4021e-06
-1.81149e-05
-1.15086e-05
-2.546e-06
1.26869e-05
-2.17788e-06
1.59628e-05
7.19231e-07
1.30151e-05
4.47076e-06
9.73681e-06
8.13455e-06
7.08416e-06
1.13028e-05
5.06983e-06
1.38302e-05
3.55972e-06
1.56891e-05
2.40066e-06
1.68927e-05
1.46474e-06
1.74559e-05
6.53617e-07
1.73775e-05
-1.13131e-07
1.66317e-05
-9.12018e-07
1.51686e-05
-1.8305e-06
1.29251e-05
-2.98463e-06
9.86352e-06
-4.53899e-06
6.06396e-06
-6.71423e-06
1.91498e-06
-9.73614e-06
-1.55183e-06
-1.36293e-05
-2.42766e-06
-1.72391e-05
-1.39363e-05
-8.39066e-07
1.35259e-05
4.07006e-06
1.10537e-05
1.02969e-05
6.78823e-06
1.57943e-05
4.23942e-06
2.01592e-05
2.71928e-06
2.34594e-05
1.76961e-06
2.58621e-05
1.15703e-06
2.75227e-05
7.40029e-07
2.85552e-05
4.32299e-07
2.90276e-05
1.81213e-07
2.89633e-05
-4.89222e-08
2.834e-05
-2.88692e-07
2.70832e-05
-5.73725e-07
2.50565e-05
-9.57912e-07
2.20529e-05
-1.53539e-06
1.7816e-05
-2.47731e-06
1.21713e-05
-4.09146e-06
5.46561e-06
-6.92357e-06
-1.88456e-07
-1.1585e-05
-1.41247e-05
1.35259e-05
2.45796e-05
3.13679e-05
3.56073e-05
3.83266e-05
4.00962e-05
4.12532e-05
4.19932e-05
4.24255e-05
4.26067e-05
4.25578e-05
4.22691e-05
4.16954e-05
4.07375e-05
3.92021e-05
3.67248e-05
3.26333e-05
2.57098e-05
1.41247e-05
)
;

boundaryField
{
    movingWall
    {
        type            calculated;
        value           uniform 0;
    }
    fixedWalls
    {
        type            calculated;
        value           uniform 0;
    }
    frontAndBack
    {
        type            empty;
        value           nonuniform 0();
    }
}


// ************************************************************************* //
