/*--------------------------------*- C++ -*----------------------------------*\
  =========                 |
  \\      /  F ield         | OpenFOAM: The Open Source CFD Toolbox
   \\    /   O peration     | Website:  https://openfoam.org
    \\  /    A nd           | Version:  6
     \\/     M anipulation  |
\*---------------------------------------------------------------------------*/
FoamFile
{
    version     2.0;
    format      ascii;
    class       volVectorField;
    location    "0.3";
    object      U;
}
// * * * * * * * * * * * * * * * * * * * * * * * * * * * * * * * * * * * * * //

dimensions      [0 1 -1 0 0 0 0];

internalField   nonuniform List<vector> 
400
(
(0.000251968 -0.000249345 0)
(0.000139554 0.00011319 0)
(-0.00117703 0.000567306 0)
(-0.00348087 0.00088814 0)
(-0.00637734 0.00104909 0)
(-0.00946925 0.00106511 0)
(-0.0124026 0.000960899 0)
(-0.0148845 0.000762881 0)
(-0.016689 0.000496249 0)
(-0.0176577 0.000185175 0)
(-0.0177017 -0.000145707 0)
(-0.0168047 -0.000469823 0)
(-0.0150298 -0.000757754 0)
(-0.012525 -0.00097726 0)
(-0.00952636 -0.00109454 0)
(-0.00635497 -0.0010774 0)
(-0.00340049 -0.000901293 0)
(-0.00108666 -0.000559064 0)
(0.000194766 -9.19096e-05 0)
(0.000266566 0.000261437 0)
(-7.97987e-05 -0.000168094 0)
(-0.00161381 0.00164642 0)
(-0.00569232 0.00362013 0)
(-0.0117181 0.00503818 0)
(-0.018892 0.00574678 0)
(-0.0264008 0.00576371 0)
(-0.0334696 0.00517484 0)
(-0.0394276 0.00409506 0)
(-0.043745 0.00264933 0)
(-0.0460484 0.000967612 0)
(-0.0461308 -0.000813621 0)
(-0.0439627 -0.00254853 0)
(-0.0397024 -0.00408104 0)
(-0.0337037 -0.00524823 0)
(-0.026514 -0.00589012 0)
(-0.0188547 -0.00586851 0)
(-0.0115662 -0.00509825 0)
(-0.00551289 -0.00359231 0)
(-0.00149525 -0.00156051 0)
(-4.476e-05 0.000226271 0)
(-0.000531982 0.00109181 0)
(-0.00371489 0.00573554 0)
(-0.0105888 0.0102244 0)
(-0.0199914 0.0134078 0)
(-0.030765 0.0149464 0)
(-0.0418226 0.0148389 0)
(-0.0521206 0.0132558 0)
(-0.0607452 0.0104563 0)
(-0.0669708 0.00674215 0)
(-0.0702843 0.00243904 0)
(-0.0704024 -0.00210637 0)
(-0.0672861 -0.00652535 0)
(-0.0611541 -0.0104292 0)
(-0.05249 -0.0134212 0)
(-0.0420382 -0.0151238 0)
(-0.0307747 -0.0152261 0)
(-0.0198292 -0.0135565 0)
(-0.0103637 -0.010179 0)
(-0.00355207 -0.00555038 0)
(-0.000480187 -0.000949098 0)
(-0.000932544 0.00348004 0)
(-0.00569599 0.0122196 0)
(-0.0153019 0.0199213 0)
(-0.027917 0.025198 0)
(-0.0419861 0.0275972 0)
(-0.05618 0.0271378 0)
(-0.0692533 0.0241092 0)
(-0.0801272 0.0189542 0)
(-0.08795 0.0121959 0)
(-0.0921209 0.00440542 0)
(-0.0923057 -0.00380767 0)
(-0.0884526 -0.0117964 0)
(-0.0808074 -0.0188821 0)
(-0.0699252 -0.0243765 0)
(-0.0566712 -0.0276281 0)
(-0.0421964 -0.0281025 0)
(-0.0278574 -0.0254983 0)
(-0.0150941 -0.0198918 0)
(-0.0055097 -0.0119268 0)
(-0.000865963 -0.00322514 0)
(-0.00128435 0.00687829 0)
(-0.00754168 0.0209527 0)
(-0.019805 0.0325102 0)
(-0.0355355 0.0401036 0)
(-0.0527449 0.0432909 0)
(-0.0698604 0.0421934 0)
(-0.0854656 0.0372782 0)
(-0.0983631 0.0292137 0)
(-0.107623 0.0187779 0)
(-0.112592 0.00681432 0)
(-0.112901 -0.0057799 0)
(-0.108478 -0.0180544 0)
(-0.0995659 -0.0290114 0)
(-0.0867428 -0.0376332 0)
(-0.070939 -0.0429459 0)
(-0.0534329 -0.0441301 0)
(-0.0357861 -0.0406799 0)
(-0.0197359 -0.032593 0)
(-0.00737657 -0.02059 0)
(-0.00120926 -0.00649882 0)
(-0.0016142 0.0112163 0)
(-0.00932501 0.0318738 0)
(-0.0242097 0.0479518 0)
(-0.0430037 0.0580725 0)
(-0.0632591 0.0619377 0)
(-0.0831555 0.0598817 0)
(-0.101127 0.0526288 0)
(-0.115895 0.0411264 0)
(-0.126492 0.0264378 0)
(-0.132241 0.00969372 0)
(-0.132754 -0.00791548 0)
(-0.127928 -0.0251314 0)
(-0.117971 -0.0406246 0)
(-0.103438 -0.0530195 0)
(-0.0852733 -0.060967 0)
(-0.0648393 -0.0632814 0)
(-0.0438877 -0.0591436 0)
(-0.0244788 -0.0483453 0)
(-0.00926191 -0.0315573 0)
(-0.00154481 -0.0107296 0)
(-0.0019481 0.0164779 0)
(-0.0111297 0.0449736 0)
(-0.0286511 0.0662335 0)
(-0.0504814 0.0790599 0)
(-0.0736878 0.0834468 0)
(-0.0962071 0.0800745 0)
(-0.116355 0.0700247 0)
(-0.132818 0.0545854 0)
(-0.144635 0.0351325 0)
(-0.151146 0.0130858 0)
(-0.151954 -0.0100852 0)
(-0.146921 -0.0328313 0)
(-0.136187 -0.0534987 0)
(-0.120229 -0.0703366 0)
(-0.0999384 -0.081566 0)
(-0.0767065 -0.0855343 0)
(-0.0524435 -0.0809659 0)
(-0.0295467 -0.0672787 0)
(-0.0112932 -0.0449399 0)
(-0.00190884 -0.015953 0)
(-0.00230959 0.0226961 0)
(-0.0130353 0.0603007 0)
(-0.0332522 0.0873642 0)
(-0.0580822 0.102997 0)
(-0.0840786 0.107666 0)
(-0.108958 0.102562 0)
(-0.130972 0.0892443 0)
(-0.148839 0.0694113 0)
(-0.161672 0.0447726 0)
(-0.168873 0.0170214 0)
(-0.170069 -0.0121316 0)
(-0.165078 -0.0408912 0)
(-0.153937 -0.0673127 0)
(-0.136978 -0.0892724 0)
(-0.114951 -0.104513 0)
(-0.089183 -0.110799 0)
(-0.0616756 -0.106216 0)
(-0.0351513 -0.0895825 0)
(-0.0135979 -0.060951 0)
(-0.00233711 -0.0222798 0)
(-0.00272292 0.0299487 0)
(-0.0151204 0.0779572 0)
(-0.0381171 0.111357 0)
(-0.0658522 0.129751 0)
(-0.0943325 0.134318 0)
(-0.121105 0.126974 0)
(-0.14445 0.109902 0)
(-0.16322 0.0852821 0)
(-0.176694 0.0551682 0)
(-0.184414 0.0214889 0)
(-0.186065 -0.013872 0)
(-0.18143 -0.0489536 0)
(-0.170404 -0.0815908 0)
(-0.153091 -0.109322 0)
(-0.129981 -0.129381 0)
(-0.102196 -0.138831 0)
(-0.0716968 -0.134892 0)
(-0.0414716 -0.115474 0)
(-0.0163033 -0.0798987 0)
(-0.00286791 -0.029893 0)
(-0.00322095 0.0383623 0)
(-0.0174813 0.0980915 0)
(-0.043345 0.138192 0)
(-0.0737626 0.159048 0)
(-0.104168 0.162902 0)
(-0.132041 0.152673 0)
(-0.155834 0.131341 0)
(-0.174688 0.10164 0)
(-0.188177 0.0659589 0)
(-0.196077 0.026392 0)
(-0.198196 -0.0151091 0)
(-0.194295 -0.0565413 0)
(-0.184094 -0.0956382 0)
(-0.167379 -0.129687 0)
(-0.144229 -0.155424 0)
(-0.115352 -0.169101 0)
(-0.0824562 -0.166809 0)
(-0.0486432 -0.145132 0)
(-0.019548 -0.102166 0)
(-0.00354972 -0.0390525 0)
(-0.00385961 0.048133 0)
(-0.0202645 0.120898 0)
(-0.0490525 0.167757 0)
(-0.0816951 0.19037 0)
(-0.113064 0.192559 0)
(-0.140758 0.178615 0)
(-0.163633 0.152512 0)
(-0.18132 0.117593 0)
(-0.193857 0.0765363 0)
(-0.201372 0.0314973 0)
(-0.203869 -0.0156544 0)
(-0.201122 -0.0630451 0)
(-0.192663 -0.108486 0)
(-0.177872 -0.149167 0)
(-0.15624 -0.181415 0)
(-0.127796 -0.200611 0)
(-0.093658 -0.201434 0)
(-0.0567431 -0.178586 0)
(-0.0235039 -0.128183 0)
(-0.00445518 -0.0501126 0)
(-0.0047436 0.0595779 0)
(-0.0237165 0.146626 0)
(-0.0553911 0.199765 0)
(-0.0893876 0.222797 0)
(-0.120136 0.221894 0)
(-0.145689 0.203188 0)
(-0.165643 0.171839 0)
(-0.180383 0.13181 0)
(-0.190593 0.0859713 0)
(-0.196875 0.0363798 0)
(-0.199514 -0.0153653 0)
(-0.198349 -0.0677364 0)
(-0.192732 -0.11886 0)
(-0.18159 -0.166073 0)
(-0.163663 -0.205487 0)
(-0.137986 -0.231665 0)
(-0.104613 -0.237637 0)
(-0.0657464 -0.215542 0)
(-0.0284069 -0.158385 0)
(-0.00570547 -0.0635642 0)
(-0.00607186 0.0732377 0)
(-0.0282504 0.175578 0)
(-0.0625185 0.233584 0)
(-0.09627 0.254754 0)
(-0.123872 0.248734 0)
(-0.144411 0.224026 0)
(-0.158683 0.187106 0)
(-0.168118 0.142461 0)
(-0.174211 0.0929698 0)
(-0.178128 0.0403825 0)
(-0.180495 -0.0141925 0)
(-0.181277 -0.0698133 0)
(-0.179708 -0.125202 0)
(-0.174285 -0.178173 0)
(-0.162912 -0.22497 0)
(-0.143335 -0.259591 0)
(-0.113955 -0.273342 0)
(-0.0754076 -0.255089 0)
(-0.0345891 -0.193116 0)
(-0.00751253 -0.0801205 0)
(-0.0082114 0.090057 0)
(-0.0345059 0.208042 0)
(-0.0704218 0.267902 0)
(-0.101036 0.283615 0)
(-0.121588 0.269812 0)
(-0.133119 0.237838 0)
(-0.138172 0.195401 0)
(-0.13947 0.147231 0)
(-0.139374 0.0959093 0)
(-0.139601 0.0426227 0)
(-0.141115 -0.0122267 0)
(-0.144061 -0.0684983 0)
(-0.147676 -0.125784 0)
(-0.150178 -0.18276 0)
(-0.148732 -0.236318 0)
(-0.139658 -0.280448 0)
(-0.11911 -0.305038 0)
(-0.0849482 -0.295187 0)
(-0.0424704 -0.232413 0)
(-0.0102408 -0.100856 0)
(-0.0117765 0.111641 0)
(-0.0432688 0.243993 0)
(-0.0783016 0.300058 0)
(-0.100638 0.305101 0)
(-0.10836 0.28046 0)
(-0.105736 0.240378 0)
(-0.0975325 0.193276 0)
(-0.0877723 0.143545 0)
(-0.0795011 0.093035 0)
(-0.0747845 0.0420975 0)
(-0.0748015 -0.00972281 0)
(-0.0798891 -0.0632021 0)
(-0.0894614 -0.118979 0)
(-0.101788 -0.176946 0)
(-0.113687 -0.235276 0)
(-0.120309 -0.28888 0)
(-0.115269 -0.327207 0)
(-0.0922674 -0.331827 0)
(-0.0523244 -0.27545 0)
(-0.0144413 -0.12736 0)
(-0.0175235 0.140639 0)
(-0.0547277 0.282196 0)
(-0.0827745 0.324752 0)
(-0.0880812 0.31248 0)
(-0.0751071 0.274453 0)
(-0.0525872 0.226764 0)
(-0.0274535 0.177282 0)
(-0.00450877 0.129131 0)
(0.0131054 0.082911 0)
(0.0234475 0.0379486 0)
(0.025407 -0.00706834 0)
(0.018517 -0.0537502 0)
(0.00299045 -0.103741 0)
(-0.0199853 -0.158309 0)
(-0.0476732 -0.217493 0)
(-0.0749713 -0.278357 0)
(-0.0935328 -0.3318 0)
(-0.0920372 -0.357724 0)
(-0.0632267 -0.319359 0)
(-0.0206011 -0.161954 0)
(-0.0253195 0.181579 0)
(-0.0656132 0.317911 0)
(-0.0732953 0.33144 0)
(-0.0480658 0.295409 0)
(-0.00556178 0.244204 0)
(0.0412344 0.192371 0)
(0.0846672 0.145038 0)
(0.12055 0.102965 0)
(0.146715 0.0651343 0)
(0.162061 0.0298915 0)
(0.165956 -0.00466771 0)
(0.157952 -0.0406212 0)
(0.137751 -0.0802367 0)
(0.105462 -0.125907 0)
(0.0622892 -0.179718 0)
(0.0118397 -0.242019 0)
(-0.0377947 -0.307897 0)
(-0.0716136 -0.360238 0)
(-0.0698439 -0.356768 0)
(-0.0277543 -0.208216 0)
(-0.0291842 0.238712 0)
(-0.0603444 0.336126 0)
(-0.021925 0.300682 0)
(0.0505331 0.240152 0)
(0.127599 0.182943 0)
(0.197035 0.135381 0)
(0.254359 0.0973912 0)
(0.298271 0.0668451 0)
(0.328844 0.0413519 0)
(0.346486 0.018778 0)
(0.351396 -0.00279179 0)
(0.343325 -0.0252605 0)
(0.321494 -0.0507815 0)
(0.284671 -0.082042 0)
(0.231608 -0.122444 0)
(0.162221 -0.175677 0)
(0.0799099 -0.24348 0)
(-0.00314741 -0.319339 0)
(-0.0540667 -0.368976 0)
(-0.027917 -0.267079 0)
(0.00929002 0.281225 0)
(0.0209551 0.29507 0)
(0.138932 0.211095 0)
(0.264366 0.14354 0)
(0.364386 0.0972358 0)
(0.440395 0.065822 0)
(0.496768 0.0442732 0)
(0.536897 0.0289121 0)
(0.563468 0.0172162 0)
(0.578327 0.00749434 0)
(0.582402 -0.00149227 0)
(0.575718 -0.0108509 0)
(0.557334 -0.0218616 0)
(0.525163 -0.0363605 0)
(0.475809 -0.0572981 0)
(0.404558 -0.0894372 0)
(0.305077 -0.139818 0)
(0.173255 -0.216512 0)
(0.0424338 -0.311712 0)
(0.0197549 -0.299316 0)
(0.300604 0.145805 0)
(0.397328 0.127343 0)
(0.557427 0.0760848 0)
(0.674454 0.0437638 0)
(0.743906 0.0256215 0)
(0.787165 0.0152887 0)
(0.815489 0.00925039 0)
(0.833957 0.00553748 0)
(0.845387 0.00304581 0)
(0.851373 0.0011593 0)
(0.852668 -0.000498069 0)
(0.849385 -0.00222179 0)
(0.841003 -0.0043543 0)
(0.826145 -0.00745016 0)
(0.802087 -0.012569 0)
(0.763632 -0.0218182 0)
(0.69906 -0.039328 0)
(0.5839 -0.0726588 0)
(0.416852 -0.127687 0)
(0.309851 -0.149194 0)
)
;

boundaryField
{
    movingWall
    {
        type            fixedValue;
        value           uniform (1 0 0);
    }
    fixedWalls
    {
        type            noSlip;
    }
    frontAndBack
    {
        type            empty;
    }
}


// ************************************************************************* //
