/*--------------------------------*- C++ -*----------------------------------*\
  =========                 |
  \\      /  F ield         | OpenFOAM: The Open Source CFD Toolbox
   \\    /   O peration     | Website:  https://openfoam.org
    \\  /    A nd           | Version:  6
     \\/     M anipulation  |
\*---------------------------------------------------------------------------*/
FoamFile
{
    version     2.0;
    format      ascii;
    class       volScalarField;
    location    "0.5";
    object      p;
}
// * * * * * * * * * * * * * * * * * * * * * * * * * * * * * * * * * * * * * //

dimensions      [0 2 -2 0 0 0 0];

internalField   nonuniform List<scalar> 
400
(
4.30906e-06
-0.00580453
-0.0129432
-0.018398
-0.0204149
-0.018221
-0.0117575
-0.00146947
0.0118487
0.0271571
0.0432488
0.058824
0.0725767
0.0833045
0.0900478
0.0922622
0.0900216
0.0842367
0.0768757
0.0710774
0.00577019
-0.000210932
-0.0058071
-0.00955061
-0.0106084
-0.00844229
-0.0029782
0.00546862
0.0163013
0.0287147
0.0417578
0.0543988
0.0656035
0.0744301
0.0801421
0.0823377
0.0810978
0.0770703
0.0712796
0.0653394
0.0133251
0.00504985
-0.00099036
-0.00442055
-0.00526988
-0.00326079
0.00160564
0.00903131
0.0185064
0.0293545
0.0407716
0.0518769
0.0617767
0.0696453
0.0748163
0.0768876
0.0758516
0.0720935
0.065802
0.0575581
0.0201289
0.00871793
0.00123227
-0.00266481
-0.00371744
-0.00188046
0.00273612
0.00978954
0.0187856
0.0291005
0.0399979
0.0506604
0.0602398
0.0679233
0.0730107
0.0750094
0.0737747
0.0694622
0.0615932
0.0501252
0.0244869
0.00979933
0.000595448
-0.00398481
-0.00529892
-0.00350378
0.0011784
0.00833858
0.0174665
0.0279542
0.0390909
0.0500766
0.0600564
0.0681734
0.0736351
0.0758069
0.0743795
0.0692965
0.0595109
0.0445641
0.0251573
0.00718058
-0.00379689
-0.00905638
-0.0105097
-0.00849718
-0.00335382
0.00443288
0.0143174
0.0256839
0.0378195
0.04991
0.0610558
0.0703118
0.076744
0.079527
0.0781509
0.0723409
0.0605194
0.0419228
0.0210668
-0.000227647
-0.0129302
-0.01871
-0.0200284
-0.017412
-0.0113161
-0.00231685
0.00899402
0.0219806
0.0359151
0.0499509
0.0631199
0.0743543
0.0825318
0.0865807
0.0857346
0.0794555
0.0655952
0.0431113
0.0111091
-0.0135797
-0.0278723
-0.0338571
-0.0346037
-0.0308568
-0.0232117
-0.0123432
0.00110769
0.0164877
0.0330575
0.0499399
0.0660912
0.0802993
0.0912115
0.0974427
0.0978868
0.0916463
0.0758658
0.0491645
-0.00600941
-0.0342246
-0.0498697
-0.0555544
-0.0550923
-0.0495155
-0.0395937
-0.0261125
-0.00975526
0.008826
0.0289053
0.0495993
0.0698052
0.0881643
0.103059
0.112716
0.115571
0.110205
0.0927988
0.0614707
-0.0319104
-0.0638316
-0.0804201
-0.0850167
-0.0824248
-0.0740811
-0.0609826
-0.0440372
-0.0239509
-0.001335
0.0231489
0.0486661
0.0741029
0.0979821
0.118409
0.133143
0.140013
0.136836
0.118401
0.0820084
-0.0687355
-0.104557
-0.121353
-0.123604
-0.117523
-0.105131
-0.0877216
-0.0663274
-0.0416376
-0.014155
0.0156076
0.0469571
0.0788621
0.109803
0.137637
0.159605
0.172757
0.173803
0.155479
0.113667
-0.119491
-0.159312
-0.17493
-0.172776
-0.161158
-0.142935
-0.119763
-0.0927799
-0.0625791
-0.0294483
0.00637368
0.0444757
0.0840598
0.123711
0.161149
0.193107
0.215705
0.224112
0.208011
0.160761
-0.188746
-0.232202
-0.243962
-0.233972
-0.213707
-0.187162
-0.156377
-0.122504
-0.0859001
-0.0464737
-0.00401538
0.0415391
0.0898445
0.139835
0.189331
0.234711
0.271117
0.291711
0.281715
0.229949
-0.284128
-0.329281
-0.331866
-0.308307
-0.27472
-0.236446
-0.195768
-0.153612
-0.109842
-0.0637471
-0.01444
0.0388614
0.0965533
0.158278
0.222382
0.285307
0.341442
0.381637
0.384916
0.332066
-0.419503
-0.459691
-0.442401
-0.395816
-0.342135
-0.287741
-0.234616
-0.182929
-0.131609
-0.0789864
-0.023217
0.0374707
0.104548
0.178833
0.25986
0.34498
0.428655
0.499781
0.529743
0.485682
-0.620714
-0.636827
-0.578735
-0.494202
-0.411236
-0.335653
-0.267775
-0.205974
-0.147534
-0.0893836
-0.0284296
0.0383414
0.113797
0.200459
0.299963
0.412018
0.53304
0.651841
0.732915
0.722718
-0.935982
-0.878647
-0.74172
-0.597894
-0.474377
-0.372655
-0.288865
-0.217761
-0.153953
-0.0924659
-0.0287211
0.0416884
0.123252
0.220703
0.338909
0.482126
0.651912
0.841251
1.01543
1.09775
-1.47526
-1.20764
-0.920411
-0.691128
-0.517216
-0.387506
-0.29003
-0.213315
-0.148112
-0.0872117
-0.0245823
0.045443
0.128911
0.233032
0.367057
0.542586
0.771007
1.05915
1.4044
1.729
-2.53191
-1.63659
-1.04494
-0.710326
-0.49541
-0.351876
-0.254355
-0.183454
-0.126086
-0.0735538
-0.0192719
0.0427457
0.119125
0.218645
0.35463
0.547703
0.825869
1.23722
1.91818
2.91571
-4.35534
-2.04834
-0.974024
-0.562961
-0.357951
-0.240322
-0.170247
-0.123867
-0.0875336
-0.0535351
-0.016649
0.0276877
0.0846612
0.161818
0.272539
0.442192
0.718087
1.22626
2.41467
4.83684
)
;

boundaryField
{
    movingWall
    {
        type            zeroGradient;
    }
    fixedWalls
    {
        type            zeroGradient;
    }
    frontAndBack
    {
        type            empty;
    }
}


// ************************************************************************* //
