/*--------------------------------*- C++ -*----------------------------------*\
  =========                 |
  \\      /  F ield         | OpenFOAM: The Open Source CFD Toolbox
   \\    /   O peration     | Website:  https://openfoam.org
    \\  /    A nd           | Version:  6
     \\/     M anipulation  |
\*---------------------------------------------------------------------------*/
FoamFile
{
    version     2.0;
    format      ascii;
    class       surfaceScalarField;
    location    "0.5";
    object      phi;
}
// * * * * * * * * * * * * * * * * * * * * * * * * * * * * * * * * * * * * * //

dimensions      [0 3 -1 0 0 0 0];

internalField   nonuniform List<scalar> 
760
(
1.42364e-08
-1.42726e-08
-2.21734e-08
3.64099e-08
-1.1427e-07
9.20965e-08
-2.45522e-07
1.31253e-07
-3.96145e-07
1.50623e-07
-5.47427e-07
1.51282e-07
-6.83264e-07
1.35837e-07
-7.90745e-07
1.07481e-07
-8.60296e-07
6.95504e-08
-8.85732e-07
2.54363e-08
-8.64408e-07
-2.13231e-08
-7.97471e-07
-6.6937e-08
-6.90158e-07
-1.07313e-07
-5.52034e-07
-1.38125e-07
-3.9699e-07
-1.55045e-07
-2.42776e-07
-1.54214e-07
-1.0973e-07
-1.33046e-07
-1.83742e-08
-9.13551e-08
1.56833e-08
-3.40573e-08
1.56833e-08
-3.41913e-08
1.99187e-08
-1.80386e-07
1.82604e-07
-4.3402e-07
3.4573e-07
-7.64518e-07
4.61751e-07
-1.13236e-06
5.18469e-07
-1.49747e-06
5.16384e-07
-1.82362e-06
4.61992e-07
-2.08087e-06
3.64728e-07
-2.24664e-06
2.35321e-07
-2.30641e-06
8.52132e-08
-2.25427e-06
-7.34711e-08
-2.09339e-06
-2.27818e-07
-1.83655e-06
-3.64149e-07
-1.50627e-06
-4.68408e-07
-1.13424e-06
-5.27076e-07
-7.59604e-07
-5.28845e-07
-4.25428e-07
-4.67222e-07
-1.72701e-07
-3.44081e-07
-3.07646e-08
-1.75994e-07
-1.5081e-08
-9.22738e-08
1.12193e-07
-3.57055e-07
4.47386e-07
-7.64657e-07
7.53332e-07
-1.26865e-06
9.65746e-07
-1.81494e-06
1.06476e-06
-2.34937e-06
1.05081e-06
-2.82283e-06
9.35453e-07
-3.1944e-06
7.36294e-07
-3.4331e-06
4.74025e-07
-3.51902e-06
1.71131e-07
-3.44407e-06
-1.4842e-07
-3.21272e-06
-4.59167e-07
-2.84251e-06
-7.34357e-07
-2.36414e-06
-9.46784e-07
-1.82056e-06
-1.07065e-06
-1.26465e-06
-1.08476e-06
-7.54619e-07
-9.77257e-07
-3.47027e-07
-7.51674e-07
-8.73814e-08
-4.35639e-07
-1.02462e-07
-1.45248e-07
2.57441e-07
-5.25542e-07
8.2768e-07
-1.08178e-06
1.30957e-06
-1.74774e-06
1.63171e-06
-2.45465e-06
1.77167e-06
-3.13678e-06
1.73294e-06
-3.73577e-06
1.53445e-06
-4.20345e-06
1.20397e-06
-4.5035e-06
7.74079e-07
-4.61253e-06
2.80157e-07
-4.52085e-06
-2.40098e-07
-4.23329e-06
-7.46724e-07
-3.76987e-06
-1.19778e-06
-3.16606e-06
-1.55059e-06
-2.47221e-06
-1.7645e-06
-1.7513e-06
-1.80566e-06
-1.07466e-06
-1.6539e-06
-5.1522e-07
-1.31111e-06
-1.39354e-07
-8.11505e-07
-2.41816e-07
-1.93642e-07
4.51082e-07
-6.85092e-07
1.31913e-06
-1.3858e-06
2.01027e-06
-2.20751e-06
2.45342e-06
-3.06584e-06
2.63e-06
-3.88424e-06
2.55135e-06
-4.59705e-06
2.24725e-06
-5.15119e-06
1.75812e-06
-5.5071e-06
1.12999e-06
-5.63919e-06
4.12253e-07
-5.53642e-06
-3.42872e-07
-5.20301e-06
-1.08014e-06
-4.65946e-06
-1.74133e-06
-3.94345e-06
-2.2666e-06
-3.11011e-06
-2.59785e-06
-2.23079e-06
-2.68497e-06
-1.38983e-06
-2.49487e-06
-6.78596e-07
-2.02234e-06
-1.87802e-07
-1.3023e-06
-4.29618e-07
-2.39974e-07
6.91057e-07
-8.40453e-07
1.91961e-06
-1.68349e-06
2.8533e-06
-2.65736e-06
3.4273e-06
-3.66125e-06
3.63388e-06
-4.60828e-06
3.49838e-06
-5.42695e-06
3.06592e-06
-6.06123e-06
2.3924e-06
-6.47006e-06
1.53882e-06
-6.62678e-06
5.68973e-07
-6.51905e-06
-4.50603e-07
-6.14951e-06
-1.44968e-06
-5.5372e-06
-2.35364e-06
-4.7195e-06
-3.08429e-06
-3.75394e-06
-3.56342e-06
-2.71884e-06
-3.72007e-06
-1.71177e-06
-3.50194e-06
-8.44782e-07
-2.88933e-06
-2.3622e-07
-1.91086e-06
-6.65837e-07
-2.86784e-07
9.77841e-07
-9.97206e-07
2.63003e-06
-1.98231e-06
3.83841e-06
-3.10529e-06
4.55028e-06
-4.24841e-06
4.777e-06
-5.31537e-06
4.56534e-06
-6.23075e-06
3.9813e-06
-6.93787e-06
3.09952e-06
-7.39623e-06
1.99718e-06
-7.57939e-06
7.52137e-07
-7.47394e-06
-5.56057e-07
-7.07988e-06
-1.84374e-06
-6.41261e-06
-3.02091e-06
-5.50624e-06
-3.99066e-06
-4.41762e-06
-4.65204e-06
-3.2298e-06
-4.90789e-06
-2.05324e-06
-4.6785e-06
-1.02269e-06
-3.91988e-06
-2.88333e-07
-2.64522e-06
-9.54171e-07
-3.36379e-07
1.31422e-06
-1.16051e-06
3.45416e-06
-2.28827e-06
4.96617e-06
-3.55537e-06
5.81737e-06
-4.8271e-06
6.04873e-06
-5.99963e-06
5.73787e-06
-6.99667e-06
4.97834e-06
-7.76422e-06
3.86706e-06
-8.26522e-06
2.49819e-06
-8.47538e-06
9.62297e-07
-8.38075e-06
-6.5069e-07
-7.97768e-06
-2.24681e-06
-7.27535e-06
-3.72325e-06
-6.30067e-06
-4.96533e-06
-5.10531e-06
-5.8474e-06
-3.77304e-06
-6.24016e-06
-2.42525e-06
-6.02629e-06
-1.22094e-06
-5.12418e-06
-3.47777e-07
-3.51839e-06
-1.30195e-06
-3.91017e-07
1.70524e-06
-1.33505e-06
4.3982e-06
-2.60527e-06
6.23639e-06
-4.00635e-06
7.21846e-06
-5.38731e-06
7.42969e-06
-6.64032e-06
6.99088e-06
-7.69305e-06
6.03107e-06
-8.49912e-06
4.67314e-06
-9.02911e-06
3.02817e-06
-9.26365e-06
1.19684e-06
-9.1894e-06
-7.24933e-07
-8.79826e-06
-2.63795e-06
-8.09015e-06
-4.43136e-06
-7.07979e-06
-5.97569e-06
-5.80703e-06
-7.12015e-06
-4.34965e-06
-7.69754e-06
-2.83526e-06
-7.54068e-06
-1.44735e-06
-6.51209e-06
-4.18193e-07
-4.54754e-06
-1.72014e-06
-4.5353e-07
2.15877e-06
-1.52589e-06
5.47055e-06
-2.93522e-06
7.64572e-06
-4.45055e-06
8.73379e-06
-5.90683e-06
8.88597e-06
-7.19836e-06
8.28241e-06
-8.26423e-06
7.09695e-06
-9.07266e-06
5.48156e-06
-9.60749e-06
3.563e-06
-9.85825e-06
1.44759e-06
-9.81411e-06
-7.69065e-07
-9.46211e-06
-2.98995e-06
-8.78988e-06
-5.10359e-06
-7.7938e-06
-6.97178e-06
-6.49299e-06
-8.42096e-06
-4.94867e-06
-9.24186e-06
-3.28566e-06
-9.20369e-06
-1.70902e-06
-8.08874e-06
-5.03716e-07
-5.75284e-06
-2.22386e-06
-5.28432e-07
2.6872e-06
-1.73991e-06
6.68203e-06
-3.27836e-06
9.18417e-06
-4.87209e-06
1.03275e-05
-6.3475e-06
1.03614e-05
-7.61131e-06
9.54621e-06
-8.62482e-06
8.11046e-06
-9.38014e-06
6.23688e-06
-9.88144e-06
4.06431e-06
-1.0132e-05
1.69815e-06
-1.01263e-05
-7.74766e-07
-9.84693e-06
-3.26933e-06
-9.26666e-06
-5.68385e-06
-8.35709e-06
-7.88135e-06
-7.10549e-06
-9.67255e-06
-5.54148e-06
-1.08059e-05
-3.77137e-06
-1.09738e-05
-2.0126e-06
-9.8475e-06
-6.09857e-07
-7.15559e-06
-2.83371e-06
-6.23777e-07
3.31098e-06
-1.98769e-06
8.04594e-06
-3.63236e-06
1.08288e-05
-5.24242e-06
1.19376e-05
-6.64803e-06
1.1767e-05
-7.78487e-06
1.06831e-05
-8.65134e-06
8.97693e-06
-9.27458e-06
6.86012e-06
-9.68679e-06
4.47651e-06
-9.91008e-06
1.92145e-06
-9.94755e-06
-7.37298e-07
-9.77899e-06
-3.43789e-06
-9.36141e-06
-6.10143e-06
-8.63627e-06
-8.60649e-06
-7.54716e-06
-1.07617e-05
-6.07242e-06
-1.22806e-05
-4.27504e-06
-1.27712e-05
-2.36419e-06
-1.17584e-05
-7.44976e-07
-8.7748e-06
-3.57869e-06
-7.54158e-07
4.06514e-06
-2.28469e-06
9.57648e-06
-3.98751e-06
1.25317e-05
-5.50958e-06
1.34597e-05
-6.70999e-06
1.29674e-05
-7.57882e-06
1.15519e-05
-8.17019e-06
9.56831e-06
-8.55768e-06
7.24761e-06
-8.80773e-06
4.72656e-06
-8.96504e-06
2.07877e-06
-9.04441e-06
-6.57937e-07
-9.02588e-06
-3.45641e-06
-8.85287e-06
-6.27444e-06
-8.43528e-06
-9.02409e-06
-7.66355e-06
-1.15334e-05
-6.4428e-06
-1.35014e-05
-4.75707e-06
-1.44569e-05
-2.76734e-06
-1.37481e-05
-9.22602e-07
-1.06195e-05
-4.50129e-06
-9.45095e-07
5.01023e-06
-2.64877e-06
1.12802e-05
-4.31147e-06
1.41944e-05
-5.5737e-06
1.47219e-05
-6.3709e-06
1.37646e-05
-6.7833e-06
1.19643e-05
-6.94035e-06
9.72536e-06
-6.96945e-06
7.27671e-06
-6.97242e-06
4.72953e-06
-7.01611e-06
2.12246e-06
-7.12823e-06
-5.4581e-07
-7.29347e-06
-3.29118e-06
-7.44849e-06
-6.11942e-06
-7.47794e-06
-8.99464e-06
-7.21823e-06
-1.17931e-05
-6.48329e-06
-1.42363e-05
-5.1341e-06
-1.58061e-05
-3.21542e-06
-1.56668e-05
-1.16429e-06
-1.26707e-05
-5.66558e-06
-1.23655e-06
6.24678e-06
-3.0832e-06
1.31268e-05
-4.508e-06
1.56192e-05
-5.23465e-06
1.54485e-05
-5.35514e-06
1.38851e-05
-5.08153e-06
1.16907e-05
-4.63041e-06
9.27423e-06
-4.17863e-06
6.82493e-06
-3.85363e-06
4.40453e-06
-3.73625e-06
2.00507e-06
-3.86435e-06
-4.17707e-07
-4.23191e-06
-2.92361e-06
-4.78145e-06
-5.56987e-06
-5.3906e-06
-8.38549e-06
-5.85823e-06
-1.13255e-05
-5.90656e-06
-1.4188e-05
-5.23296e-06
-1.64797e-05
-3.66606e-06
-1.72337e-05
-1.49913e-06
-1.48376e-05
-7.16471e-06
-1.67129e-06
7.91806e-06
-3.51209e-06
1.49676e-05
-4.31499e-06
1.64221e-05
-4.08854e-06
1.52221e-05
-3.19251e-06
1.29891e-05
-1.99803e-06
1.04962e-05
-7.94285e-07
8.07049e-06
2.20312e-07
5.81033e-06
9.19288e-07
3.70555e-06
1.22672e-06
1.69764e-06
1.10321e-06
-2.94201e-07
5.42217e-07
-2.36262e-06
-4.21793e-07
-4.60586e-06
-1.69148e-06
-7.11581e-06
-3.07137e-06
-9.94557e-06
-4.22984e-06
-1.30295e-05
-4.69457e-06
-1.6015e-05
-3.96516e-06
-1.79631e-05
-1.94183e-06
-1.68609e-05
-9.10654e-06
-2.22281e-06
1.01409e-05
-3.5862e-06
1.6331e-05
-3.0764e-06
1.59123e-05
-1.3428e-06
1.34885e-05
8.98161e-07
1.07481e-05
3.15613e-06
8.23822e-06
5.13933e-06
6.0873e-06
6.68995e-06
4.25971e-06
7.72715e-06
2.66836e-06
8.20792e-06
1.21687e-06
8.10531e-06
-1.916e-07
7.40052e-06
-1.65783e-06
6.08842e-06
-3.29376e-06
4.20084e-06
-5.22823e-06
1.85598e-06
-7.60071e-06
-6.59604e-07
-1.05139e-05
-2.78931e-06
-1.38853e-05
-3.65616e-06
-1.70962e-05
-2.40208e-06
-1.8115e-05
-1.15086e-05
-2.54599e-06
1.26869e-05
-2.17784e-06
1.59628e-05
7.19319e-07
1.30151e-05
4.47091e-06
9.73688e-06
8.13479e-06
7.08424e-06
1.13031e-05
5.06991e-06
1.38306e-05
3.5598e-06
1.56896e-05
2.40072e-06
1.68932e-05
1.46478e-06
1.74564e-05
6.53629e-07
1.7378e-05
-1.13143e-07
1.66322e-05
-9.12052e-07
1.5169e-05
-1.83055e-06
1.29254e-05
-2.98469e-06
9.86378e-06
-4.53906e-06
6.06414e-06
-6.7143e-06
1.9151e-06
-9.73621e-06
-1.55177e-06
-1.36293e-05
-2.42764e-06
-1.72391e-05
-1.39363e-05
-8.39065e-07
1.35259e-05
4.07008e-06
1.10537e-05
1.02969e-05
6.78824e-06
1.57944e-05
4.23944e-06
2.01593e-05
2.7193e-06
2.34596e-05
1.76964e-06
2.58623e-05
1.15705e-06
2.7523e-05
7.40046e-07
2.85555e-05
4.32309e-07
2.90279e-05
1.81215e-07
2.89637e-05
-4.89269e-08
2.83403e-05
-2.88703e-07
2.70835e-05
-5.73741e-07
2.50568e-05
-9.5793e-07
2.20531e-05
-1.53541e-06
1.78161e-05
-2.47733e-06
1.21714e-05
-4.09148e-06
5.46564e-06
-6.92358e-06
-1.88448e-07
-1.15851e-05
-1.41247e-05
1.35259e-05
2.45796e-05
3.13679e-05
3.56073e-05
3.83266e-05
4.00963e-05
4.12533e-05
4.19933e-05
4.24257e-05
4.26069e-05
4.25579e-05
4.22692e-05
4.16955e-05
4.07376e-05
3.92022e-05
3.67248e-05
3.26334e-05
2.57098e-05
1.41247e-05
)
;

boundaryField
{
    movingWall
    {
        type            calculated;
        value           uniform 0;
    }
    fixedWalls
    {
        type            calculated;
        value           uniform 0;
    }
    frontAndBack
    {
        type            empty;
        value           nonuniform 0();
    }
}


// ************************************************************************* //
