/*--------------------------------*- C++ -*----------------------------------*\
  =========                 |
  \\      /  F ield         | OpenFOAM: The Open Source CFD Toolbox
   \\    /   O peration     | Website:  https://openfoam.org
    \\  /    A nd           | Version:  6
     \\/     M anipulation  |
\*---------------------------------------------------------------------------*/
FoamFile
{
    version     2.0;
    format      ascii;
    class       volVectorField;
    location    "0.5";
    object      U;
}
// * * * * * * * * * * * * * * * * * * * * * * * * * * * * * * * * * * * * * //

dimensions      [0 1 -1 0 0 0 0];

internalField   nonuniform List<vector> 
400
(
(0.000251991 -0.000249415 0)
(0.000139565 0.00011318 0)
(-0.00117718 0.000567372 0)
(-0.00348133 0.000888258 0)
(-0.0063782 0.00104924 0)
(-0.00947054 0.00106526 0)
(-0.0124043 0.000961033 0)
(-0.0148865 0.00076299 0)
(-0.0166913 0.000496321 0)
(-0.0176602 0.0001852 0)
(-0.0177041 -0.000145732 0)
(-0.0168069 -0.000469896 0)
(-0.0150318 -0.000757866 0)
(-0.0125266 -0.000977398 0)
(-0.00952755 -0.00109469 0)
(-0.00635573 -0.00107754 0)
(-0.00340085 -0.000901397 0)
(-0.00108674 -0.000559117 0)
(0.000194825 -9.19012e-05 0)
(0.00026661 0.000261483 0)
(-7.98128e-05 -0.000168178 0)
(-0.00161404 0.0016466 0)
(-0.00569312 0.00362061 0)
(-0.0117197 0.00503888 0)
(-0.0188946 0.00574759 0)
(-0.0264046 0.00576453 0)
(-0.0334743 0.00517558 0)
(-0.0394332 0.00409564 0)
(-0.0437512 0.0026497 0)
(-0.0460549 0.000967724 0)
(-0.0461373 -0.000813776 0)
(-0.0439688 -0.00254894 0)
(-0.0397078 -0.00408166 0)
(-0.0337081 -0.00524899 0)
(-0.0265174 -0.00589094 0)
(-0.018857 -0.0058693 0)
(-0.0115676 -0.00509889 0)
(-0.00551352 -0.00359272 0)
(-0.0014954 -0.00156065 0)
(-4.4755e-05 0.000226335 0)
(-0.000532057 0.00109193 0)
(-0.00371541 0.00573631 0)
(-0.0105903 0.0102258 0)
(-0.0199942 0.0134097 0)
(-0.0307692 0.0149486 0)
(-0.0418285 0.0148411 0)
(-0.0521278 0.0132577 0)
(-0.0607537 0.0104578 0)
(-0.06698 0.00674306 0)
(-0.0702939 0.0024393 0)
(-0.0704119 -0.00210679 0)
(-0.0672951 -0.0065264 0)
(-0.0611621 -0.0104308 0)
(-0.0524968 -0.0134232 0)
(-0.0420436 -0.0151259 0)
(-0.0307785 -0.0152281 0)
(-0.0198317 -0.0135582 0)
(-0.0103649 -0.0101803 0)
(-0.00355248 -0.00555101 0)
(-0.000480241 -0.000949167 0)
(-0.000932674 0.00348051 0)
(-0.00569675 0.0122212 0)
(-0.0153039 0.0199241 0)
(-0.0279206 0.0252015 0)
(-0.0419916 0.0276011 0)
(-0.0561874 0.0271416 0)
(-0.0692623 0.0241126 0)
(-0.0801376 0.0189568 0)
(-0.0879614 0.0121975 0)
(-0.0921327 0.00440585 0)
(-0.0923174 -0.00380843 0)
(-0.0884636 -0.0117983 0)
(-0.0808173 -0.018885 0)
(-0.0699337 -0.02438 0)
(-0.056678 -0.0276319 0)
(-0.0422013 -0.0281062 0)
(-0.0278606 -0.0255016 0)
(-0.0150958 -0.0198942 0)
(-0.00551033 -0.0119282 0)
(-0.000866063 -0.00322549 0)
(-0.00128452 0.00687922 0)
(-0.00754259 0.0209555 0)
(-0.0198073 0.0325145 0)
(-0.0355396 0.040109 0)
(-0.052751 0.0432967 0)
(-0.0698685 0.0421991 0)
(-0.0854755 0.0372832 0)
(-0.0983745 0.0292175 0)
(-0.107635 0.0187802 0)
(-0.112604 0.00681492 0)
(-0.112913 -0.00578105 0)
(-0.10849 -0.0180572 0)
(-0.0995768 -0.0290156 0)
(-0.0867521 -0.0376384 0)
(-0.0709464 -0.0429516 0)
(-0.0534385 -0.0441357 0)
(-0.0357897 -0.0406849 0)
(-0.0197379 -0.0325968 0)
(-0.00737732 -0.0205923 0)
(-0.00120939 -0.00649954 0)
(-0.00161438 0.0112177 0)
(-0.00932596 0.0318778 0)
(-0.0242121 0.0479578 0)
(-0.0430079 0.0580798 0)
(-0.0632653 0.0619455 0)
(-0.0831637 0.0598893 0)
(-0.101137 0.0526355 0)
(-0.115907 0.0411315 0)
(-0.126504 0.0264408 0)
(-0.132254 0.00969449 0)
(-0.132766 -0.00791703 0)
(-0.127939 -0.0251351 0)
(-0.117982 -0.0406302 0)
(-0.103448 -0.0530264 0)
(-0.0852808 -0.0609746 0)
(-0.0648448 -0.063289 0)
(-0.0438914 -0.0591503 0)
(-0.0244808 -0.0483506 0)
(-0.0092627 -0.0315607 0)
(-0.00154494 -0.0107307 0)
(-0.00194827 0.0164798 0)
(-0.0111306 0.0449788 0)
(-0.0286533 0.0662411 0)
(-0.0504852 0.0790691 0)
(-0.0736934 0.0834565 0)
(-0.0962144 0.0800839 0)
(-0.116364 0.0700329 0)
(-0.132829 0.0545915 0)
(-0.144646 0.0351362 0)
(-0.151157 0.0130867 0)
(-0.151965 -0.0100871 0)
(-0.146932 -0.0328359 0)
(-0.136197 -0.0535056 0)
(-0.120237 -0.0703451 0)
(-0.0999452 -0.0815753 0)
(-0.0767117 -0.0855437 0)
(-0.0524469 -0.0809744 0)
(-0.0295486 -0.0672855 0)
(-0.0112939 -0.0449443 0)
(-0.00190897 -0.0159546 0)
(-0.00230972 0.0226985 0)
(-0.013036 0.0603068 0)
(-0.0332539 0.0873731 0)
(-0.0580852 0.103008 0)
(-0.0840831 0.107677 0)
(-0.108964 0.102572 0)
(-0.130979 0.0892537 0)
(-0.148847 0.0694184 0)
(-0.16168 0.0447769 0)
(-0.168882 0.0170224 0)
(-0.170078 -0.0121338 0)
(-0.165087 -0.0408965 0)
(-0.153945 -0.0673206 0)
(-0.136984 -0.0892823 0)
(-0.114956 -0.104523 0)
(-0.0891872 -0.11081 0)
(-0.0616785 -0.106226 0)
(-0.0351529 -0.0895905 0)
(-0.0135986 -0.0609563 0)
(-0.00233722 -0.0222817 0)
(-0.002723 0.0299514 0)
(-0.0151208 0.0779641 0)
(-0.0381182 0.111367 0)
(-0.0658542 0.129763 0)
(-0.0943353 0.13433 0)
(-0.121109 0.126986 0)
(-0.144455 0.109912 0)
(-0.163225 0.0852899 0)
(-0.176699 0.0551729 0)
(-0.184419 0.0214901 0)
(-0.186071 -0.0138744 0)
(-0.181436 -0.0489594 0)
(-0.170409 -0.0815994 0)
(-0.153095 -0.109333 0)
(-0.129985 -0.129393 0)
(-0.102199 -0.138843 0)
(-0.0716987 -0.134903 0)
(-0.0414727 -0.115483 0)
(-0.0163037 -0.0799047 0)
(-0.00286798 -0.0298952 0)
(-0.00322097 0.0383651 0)
(-0.0174814 0.0980987 0)
(-0.0433453 0.138202 0)
(-0.0737632 0.15906 0)
(-0.104169 0.162915 0)
(-0.132042 0.152685 0)
(-0.155836 0.131352 0)
(-0.174689 0.101649 0)
(-0.188179 0.0659638 0)
(-0.196079 0.0263933 0)
(-0.198198 -0.0151116 0)
(-0.194297 -0.0565472 0)
(-0.184096 -0.0956472 0)
(-0.167381 -0.129698 0)
(-0.144231 -0.155436 0)
(-0.115353 -0.169114 0)
(-0.0824571 -0.166821 0)
(-0.0486437 -0.145142 0)
(-0.0195482 -0.102172 0)
(-0.00354977 -0.0390549 0)
(-0.00385957 0.0481358 0)
(-0.0202642 0.120905 0)
(-0.049052 0.167768 0)
(-0.0816942 0.190383 0)
(-0.113063 0.192572 0)
(-0.140756 0.178628 0)
(-0.163631 0.152523 0)
(-0.181318 0.117601 0)
(-0.193856 0.0765414 0)
(-0.20137 0.0314987 0)
(-0.203867 -0.0156568 0)
(-0.201121 -0.063051 0)
(-0.192661 -0.108495 0)
(-0.177871 -0.149178 0)
(-0.15624 -0.181427 0)
(-0.127796 -0.200623 0)
(-0.0936578 -0.201446 0)
(-0.056743 -0.178596 0)
(-0.0235039 -0.12819 0)
(-0.00445518 -0.050115 0)
(-0.00474349 0.0595805 0)
(-0.0237159 0.146633 0)
(-0.0553897 0.199775 0)
(-0.0893854 0.222808 0)
(-0.120132 0.221907 0)
(-0.145685 0.2032 0)
(-0.165639 0.17185 0)
(-0.180378 0.131818 0)
(-0.190587 0.0859762 0)
(-0.196869 0.0363812 0)
(-0.199508 -0.0153675 0)
(-0.198344 -0.067742 0)
(-0.192727 -0.118868 0)
(-0.181586 -0.166084 0)
(-0.16366 -0.205499 0)
(-0.137984 -0.231678 0)
(-0.104611 -0.237648 0)
(-0.0657457 -0.215551 0)
(-0.0284067 -0.158391 0)
(-0.00570543 -0.0635665 0)
(-0.0060717 0.0732399 0)
(-0.0282496 0.175583 0)
(-0.0625165 0.233592 0)
(-0.0962667 0.254765 0)
(-0.123867 0.248745 0)
(-0.144405 0.224037 0)
(-0.158675 0.187115 0)
(-0.16811 0.142468 0)
(-0.174203 0.0929744 0)
(-0.17812 0.0403839 0)
(-0.180486 -0.0141944 0)
(-0.181268 -0.0698183 0)
(-0.1797 -0.12521 0)
(-0.174278 -0.178182 0)
(-0.162907 -0.224981 0)
(-0.143332 -0.259602 0)
(-0.113953 -0.273352 0)
(-0.0754063 -0.255098 0)
(-0.0345887 -0.193122 0)
(-0.00751246 -0.0801227 0)
(-0.00821121 0.0900587 0)
(-0.0345049 0.208047 0)
(-0.0704194 0.267909 0)
(-0.101032 0.283624 0)
(-0.121582 0.269822 0)
(-0.133111 0.237848 0)
(-0.138163 0.19541 0)
(-0.13946 0.147237 0)
(-0.139363 0.0959135 0)
(-0.139589 0.0426241 0)
(-0.141104 -0.0122283 0)
(-0.14405 -0.0685025 0)
(-0.147666 -0.12579 0)
(-0.15017 -0.182768 0)
(-0.148725 -0.236328 0)
(-0.139653 -0.280458 0)
(-0.119106 -0.305047 0)
(-0.0849465 -0.295194 0)
(-0.0424697 -0.232418 0)
(-0.0102407 -0.100857 0)
(-0.0117763 0.111643 0)
(-0.0432677 0.243996 0)
(-0.0782991 0.300063 0)
(-0.100633 0.305108 0)
(-0.108354 0.280467 0)
(-0.105728 0.240386 0)
(-0.0975225 0.193283 0)
(-0.0877609 0.143551 0)
(-0.0794888 0.0930385 0)
(-0.0747717 0.0420987 0)
(-0.0747888 -0.00972394 0)
(-0.079877 -0.0632054 0)
(-0.0894505 -0.118984 0)
(-0.101778 -0.176953 0)
(-0.11368 -0.235284 0)
(-0.120303 -0.288888 0)
(-0.115265 -0.327214 0)
(-0.0922654 -0.331833 0)
(-0.0523236 -0.275454 0)
(-0.0144412 -0.127362 0)
(-0.0175234 0.140639 0)
(-0.0547268 0.282198 0)
(-0.0827722 0.324756 0)
(-0.0880771 0.312485 0)
(-0.075101 0.274459 0)
(-0.0525792 0.22677 0)
(-0.0274437 0.177287 0)
(-0.0044974 0.129135 0)
(0.0131178 0.0829137 0)
(0.0234604 0.0379495 0)
(0.0254199 -0.00706913 0)
(0.0185293 -0.0537526 0)
(0.00300168 -0.103745 0)
(-0.0199756 -0.158314 0)
(-0.0476653 -0.217499 0)
(-0.0749655 -0.278363 0)
(-0.0935289 -0.331806 0)
(-0.092035 -0.357728 0)
(-0.0632259 -0.319363 0)
(-0.0206009 -0.161955 0)
(-0.0253194 0.18158 0)
(-0.0656125 0.317912 0)
(-0.0732935 0.331442 0)
(-0.0480624 0.295412 0)
(-0.00555656 0.244208 0)
(0.0412415 0.192375 0)
(0.084676 0.145042 0)
(0.12056 0.102968 0)
(0.146727 0.0651362 0)
(0.162073 0.0298922 0)
(0.165968 -0.00466823 0)
(0.157964 -0.0406229 0)
(0.137761 -0.0802393 0)
(0.105471 -0.12591 0)
(0.0622966 -0.179722 0)
(0.0118452 -0.242023 0)
(-0.037791 -0.307901 0)
(-0.0716115 -0.36024 0)
(-0.0698432 -0.35677 0)
(-0.0277541 -0.208217 0)
(-0.0291841 0.238712 0)
(-0.0603441 0.336126 0)
(-0.0219238 0.300683 0)
(0.0505354 0.240154 0)
(0.127603 0.182946 0)
(0.19704 0.135384 0)
(0.254366 0.0973933 0)
(0.29828 0.0668467 0)
(0.328853 0.041353 0)
(0.346496 0.0187784 0)
(0.351406 -0.0027921 0)
(0.343334 -0.0252614 0)
(0.321502 -0.0507829 0)
(0.284679 -0.0820438 0)
(0.231614 -0.122446 0)
(0.162226 -0.17568 0)
(0.0799129 -0.243482 0)
(-0.00314577 -0.31934 0)
(-0.0540661 -0.368977 0)
(-0.0279169 -0.267079 0)
(0.00929 0.281225 0)
(0.0209552 0.29507 0)
(0.138932 0.211095 0)
(0.264367 0.14354 0)
(0.364389 0.0972367 0)
(0.440398 0.0658229 0)
(0.496773 0.044274 0)
(0.536902 0.0289127 0)
(0.563474 0.0172166 0)
(0.578333 0.00749446 0)
(0.582408 -0.00149243 0)
(0.575725 -0.0108513 0)
(0.55734 -0.0218622 0)
(0.525168 -0.0363612 0)
(0.475813 -0.0572989 0)
(0.404561 -0.089438 0)
(0.305079 -0.139818 0)
(0.173256 -0.216513 0)
(0.0424341 -0.311713 0)
(0.019755 -0.299316 0)
(0.300604 0.145805 0)
(0.397328 0.127343 0)
(0.557427 0.0760848 0)
(0.674454 0.0437639 0)
(0.743907 0.0256217 0)
(0.787167 0.0152889 0)
(0.815491 0.00925055 0)
(0.833959 0.0055376 0)
(0.845389 0.00304587 0)
(0.851376 0.00115931 0)
(0.852671 -0.000498114 0)
(0.849388 -0.00222188 0)
(0.841005 -0.00435441 0)
(0.826146 -0.00745029 0)
(0.802088 -0.0125692 0)
(0.763633 -0.0218183 0)
(0.699061 -0.0393281 0)
(0.583901 -0.0726589 0)
(0.416852 -0.127687 0)
(0.309851 -0.149194 0)
)
;

boundaryField
{
    movingWall
    {
        type            fixedValue;
        value           uniform (1 0 0);
    }
    fixedWalls
    {
        type            noSlip;
    }
    frontAndBack
    {
        type            empty;
    }
}


// ************************************************************************* //
