/*--------------------------------*- C++ -*----------------------------------*\
  =========                 |
  \\      /  F ield         | OpenFOAM: The Open Source CFD Toolbox
   \\    /   O peration     | Website:  https://openfoam.org
    \\  /    A nd           | Version:  6
     \\/     M anipulation  |
\*---------------------------------------------------------------------------*/
FoamFile
{
    version     2.0;
    format      ascii;
    class       volScalarField;
    location    "0.2";
    object      p;
}
// * * * * * * * * * * * * * * * * * * * * * * * * * * * * * * * * * * * * * //

dimensions      [0 2 -2 0 0 0 0];

internalField   nonuniform List<scalar> 
400
(
3.48612e-07
-0.00580825
-0.0129433
-0.0183944
-0.0204085
-0.0182133
-0.01175
-0.0014634
0.011852
0.0271571
0.0432452
0.0588171
0.072567
0.083293
0.0900361
0.0922519
0.0900139
0.0842327
0.0768755
0.0710797
0.00576082
-0.000217574
-0.00581045
-0.00955095
-0.0106065
-0.00843908
-0.0029747
0.00547156
0.0163028
0.0287143
0.0417551
0.0543941
0.0655972
0.0744229
0.0801351
0.0823318
0.0810941
0.0770695
0.0712819
0.0653445
0.0133111
0.00504022
-0.000996429
-0.0044239
-0.00527107
-0.00326051
0.00160662
0.00903237
0.0185069
0.029354
0.0407699
0.0518739
0.0617728
0.069641
0.0748125
0.076885
0.0758511
0.0720956
0.0658074
0.0575675
0.020111
0.00870582
0.00122427
-0.00266997
-0.00372032
-0.00188171
0.00273588
0.00978981
0.0187858
0.0291004
0.0399971
0.050659
0.0602378
0.0679212
0.0730092
0.0750091
0.0737765
0.0694668
0.0616017
0.0501389
0.0244667
0.00978598
0.000586454
-0.0039908
-0.00530251
-0.00350556
0.00117792
0.00833894
0.0174673
0.0279551
0.0390915
0.0500769
0.0600564
0.0681733
0.0736356
0.0758086
0.0743833
0.0693032
0.0595218
0.0445812
0.0251372
0.0071676
-0.00380545
-0.00906197
-0.0105129
-0.00849841
-0.0033535
0.00443433
0.0143196
0.0256864
0.037822
0.0499123
0.0610579
0.0703138
0.0767463
0.0795303
0.0781561
0.0723489
0.0605317
0.0419415
0.0210497
-0.000238275
-0.0129368
-0.0187139
-0.02003
-0.0174115
-0.011314
-0.00231348
0.0089983
0.0219854
0.0359199
0.0499555
0.0631242
0.0743583
0.0825359
0.0865854
0.0857408
0.0794641
0.0656076
0.0431298
0.0110975
-0.0135861
-0.0278754
-0.033858
-0.0346026
-0.0308538
-0.023207
-0.0123372
0.00111473
0.0164953
0.0330651
0.0499472
0.0660978
0.0803053
0.0912172
0.0974485
0.0978934
0.0916547
0.0758773
0.0491812
-0.00601336
-0.0342252
-0.0498682
-0.0555513
-0.0550877
-0.0495092
-0.0395858
-0.0261033
-0.00974506
0.00883666
0.0289159
0.0496093
0.0698142
0.0881723
0.103066
0.112722
0.115577
0.110213
0.0928084
0.0614838
-0.0319053
-0.0638254
-0.0804133
-0.0850091
-0.0824162
-0.0740713
-0.0609715
-0.0440248
-0.0239376
-0.00132133
0.0231623
0.0486786
0.0741141
0.0979919
0.118417
0.13315
0.14002
0.136842
0.118408
0.082017
-0.0687212
-0.104544
-0.121341
-0.123592
-0.117511
-0.105118
-0.0877075
-0.0663122
-0.0416216
-0.0141387
0.0156234
0.0469718
0.0788752
0.109814
0.137646
0.159612
0.172763
0.173808
0.155483
0.113671
-0.119469
-0.159293
-0.174913
-0.172761
-0.161143
-0.14292
-0.119747
-0.0927628
-0.0625613
-0.0294303
0.00639115
0.0444919
0.084074
0.123723
0.161159
0.193114
0.215709
0.224114
0.208012
0.160759
-0.188717
-0.232178
-0.243942
-0.233954
-0.213689
-0.187145
-0.15636
-0.122487
-0.0858817
-0.0464551
-0.00399741
0.0415555
0.0898587
0.139847
0.189339
0.234717
0.27112
0.291711
0.281712
0.229942
-0.284095
-0.329255
-0.331844
-0.308288
-0.274703
-0.236429
-0.195751
-0.153595
-0.109824
-0.0637291
-0.0144227
0.0388771
0.0965666
0.158289
0.222389
0.285311
0.341442
0.381635
0.384909
0.332054
-0.41947
-0.459665
-0.44238
-0.395799
-0.34212
-0.287726
-0.234601
-0.182914
-0.131593
-0.07897
-0.0232013
0.0374848
0.104559
0.178841
0.259865
0.344981
0.428653
0.499776
0.529734
0.485666
-0.620684
-0.636804
-0.578717
-0.494188
-0.411224
-0.335642
-0.267764
-0.205962
-0.147521
-0.0893697
-0.0284161
0.0383533
0.113806
0.200465
0.299965
0.412017
0.533035
0.651834
0.732903
0.722701
-0.935957
-0.878628
-0.741707
-0.597885
-0.47437
-0.372649
-0.288858
-0.217752
-0.153943
-0.0924546
-0.0287098
0.0416984
0.12326
0.220707
0.338909
0.482123
0.651905
0.841242
1.01541
1.09773
-1.47525
-1.20763
-0.920402
-0.691123
-0.517213
-0.387504
-0.290027
-0.21331
-0.148104
-0.0872029
-0.0245729
0.0454517
0.128918
0.233036
0.367057
0.542583
0.771
1.05914
1.40439
1.72898
-2.5319
-1.63658
-1.04494
-0.710325
-0.495412
-0.351878
-0.254355
-0.183453
-0.126082
-0.0735471
-0.0192636
0.0427543
0.119133
0.21865
0.354632
0.547702
0.825864
1.23722
1.91817
2.91569
-4.35533
-2.04834
-0.974022
-0.562965
-0.357957
-0.240329
-0.170253
-0.12387
-0.0875324
-0.0535301
-0.016641
0.0276976
0.0846715
0.161827
0.272546
0.442195
0.718086
1.22625
2.41466
4.83683
)
;

boundaryField
{
    movingWall
    {
        type            zeroGradient;
    }
    fixedWalls
    {
        type            zeroGradient;
    }
    frontAndBack
    {
        type            empty;
    }
}


// ************************************************************************* //
