/*--------------------------------*- C++ -*----------------------------------*\
  =========                 |
  \\      /  F ield         | OpenFOAM: The Open Source CFD Toolbox
   \\    /   O peration     | Website:  https://openfoam.org
    \\  /    A nd           | Version:  6
     \\/     M anipulation  |
\*---------------------------------------------------------------------------*/
FoamFile
{
    version     2.0;
    format      ascii;
    class       surfaceScalarField;
    location    "0.2";
    object      phi;
}
// * * * * * * * * * * * * * * * * * * * * * * * * * * * * * * * * * * * * * //

dimensions      [0 3 -1 0 0 0 0];

internalField   nonuniform List<scalar> 
760
(
1.42421e-08
-1.4245e-08
-2.21657e-08
3.64079e-08
-1.14229e-07
9.20632e-08
-2.45428e-07
1.31199e-07
-3.95988e-07
1.50559e-07
-5.47206e-07
1.51218e-07
-6.82984e-07
1.35779e-07
-7.90419e-07
1.07436e-07
-8.59941e-07
6.95213e-08
-8.85369e-07
2.54269e-08
-8.64057e-07
-2.13114e-08
-7.97151e-07
-6.69054e-08
-6.89886e-07
-1.07265e-07
-5.51822e-07
-1.38065e-07
-3.96843e-07
-1.54979e-07
-2.42693e-07
-1.54151e-07
-1.09699e-07
-1.32994e-07
-1.83764e-08
-9.13222e-08
1.56727e-08
-3.40493e-08
1.56719e-08
-3.41695e-08
1.99241e-08
-1.80299e-07
1.82537e-07
-4.3382e-07
3.45583e-07
-7.64168e-07
4.61548e-07
-1.13185e-06
5.18239e-07
-1.49678e-06
5.16153e-07
-1.82279e-06
4.61787e-07
-2.07992e-06
3.64568e-07
-2.24562e-06
2.35221e-07
-2.30538e-06
8.51833e-08
-2.25326e-06
-7.34285e-08
-2.09246e-06
-2.27706e-07
-1.83575e-06
-3.63978e-07
-1.50562e-06
-4.68195e-07
-1.13375e-06
-5.26843e-07
-7.59288e-07
-5.28617e-07
-4.25255e-07
-4.67027e-07
-1.72634e-07
-3.43943e-07
-3.07548e-08
-1.7593e-07
-1.50829e-08
-9.22224e-08
1.12147e-07
-3.56872e-07
4.47186e-07
-7.64278e-07
7.52989e-07
-1.26804e-06
9.65305e-07
-1.81407e-06
1.06427e-06
-2.34825e-06
1.05033e-06
-2.82149e-06
9.35031e-07
-3.19289e-06
7.35968e-07
-3.4315e-06
4.73824e-07
-3.51739e-06
1.71073e-07
-3.44249e-06
-1.48329e-07
-3.21126e-06
-4.58935e-07
-2.84123e-06
-7.34005e-07
-2.36308e-06
-9.46345e-07
-1.81976e-06
-1.07017e-06
-1.26409e-06
-1.08428e-06
-7.54285e-07
-9.76836e-07
-3.46872e-07
-7.51357e-07
-8.73416e-08
-4.3546e-07
-1.02424e-07
-1.45169e-07
2.57316e-07
-5.25275e-07
8.2729e-07
-1.08125e-06
1.30896e-06
-1.7469e-06
1.63096e-06
-2.45349e-06
1.77086e-06
-3.13531e-06
1.73216e-06
-3.73404e-06
1.53376e-06
-4.20152e-06
1.20345e-06
-4.50145e-06
7.73756e-07
-4.61045e-06
2.80068e-07
-4.51883e-06
-2.39947e-07
-4.23142e-06
-7.46345e-07
-3.76822e-06
-1.19721e-06
-3.16468e-06
-1.54988e-06
-2.47114e-06
-1.76371e-06
-1.75055e-06
-1.80487e-06
-1.07419e-06
-1.6532e-06
-5.1499e-07
-1.31056e-06
-1.39288e-07
-8.11162e-07
-2.41712e-07
-1.93544e-07
4.5086e-07
-6.8477e-07
1.31852e-06
-1.38517e-06
2.00936e-06
-2.20654e-06
2.45233e-06
-3.06451e-06
2.62883e-06
-3.88258e-06
2.55023e-06
-4.5951e-06
2.24628e-06
-5.14903e-06
1.75737e-06
-5.5048e-06
1.12953e-06
-5.63687e-06
4.12131e-07
-5.53416e-06
-3.42654e-07
-5.20091e-06
-1.0796e-06
-4.6576e-06
-1.74052e-06
-3.94189e-06
-2.26558e-06
-3.10888e-06
-2.59673e-06
-2.22991e-06
-2.68384e-06
-1.38927e-06
-2.49384e-06
-6.78317e-07
-2.02151e-06
-1.8772e-07
-1.30176e-06
-4.29432e-07
-2.3987e-07
6.9073e-07
-8.40115e-07
1.91876e-06
-1.68284e-06
2.85208e-06
-2.65636e-06
3.42585e-06
-3.65989e-06
3.63236e-06
-4.60659e-06
3.49693e-06
-5.42498e-06
3.06467e-06
-6.05905e-06
2.39144e-06
-6.46775e-06
1.53824e-06
-6.62444e-06
5.68821e-07
-6.51678e-06
-4.5032e-07
-6.14739e-06
-1.44899e-06
-5.53531e-06
-2.35259e-06
-4.71791e-06
-3.08298e-06
-3.75268e-06
-3.56196e-06
-2.71793e-06
-3.7186e-06
-1.71119e-06
-3.50057e-06
-8.44488e-07
-2.88822e-06
-2.36132e-07
-1.91011e-06
-6.65563e-07
-2.86687e-07
9.77417e-07
-9.96893e-07
2.62897e-06
-1.98171e-06
3.8369e-06
-3.10437e-06
4.54851e-06
-4.24717e-06
4.77516e-06
-5.31383e-06
4.56359e-06
-6.22895e-06
3.97979e-06
-6.93588e-06
3.09837e-06
-7.39413e-06
1.99649e-06
-7.57727e-06
7.51955e-07
-7.47187e-06
-5.55717e-07
-7.07795e-06
-1.84291e-06
-6.41089e-06
-3.01966e-06
-5.50478e-06
-3.98908e-06
-4.41646e-06
-4.65028e-06
-3.22896e-06
-4.9061e-06
-2.0527e-06
-4.67683e-06
-1.02241e-06
-3.9185e-06
-2.8825e-07
-2.64428e-06
-9.53814e-07
-3.363e-07
1.31372e-06
-1.16026e-06
3.45293e-06
-2.28779e-06
4.96444e-06
-3.55464e-06
5.81536e-06
-4.82611e-06
6.04664e-06
-5.99841e-06
5.73588e-06
-6.99524e-06
4.97663e-06
-7.76263e-06
3.86576e-06
-8.26354e-06
2.4974e-06
-8.47368e-06
9.62088e-07
-8.37909e-06
-6.50309e-07
-7.97613e-06
-2.24587e-06
-7.27395e-06
-3.72183e-06
-6.29949e-06
-4.96355e-06
-5.10436e-06
-5.8454e-06
-3.77235e-06
-6.23811e-06
-2.4248e-06
-6.02438e-06
-1.22071e-06
-5.12259e-06
-3.47707e-07
-3.51728e-06
-1.30152e-06
-3.90968e-07
1.70469e-06
-1.33489e-06
4.39685e-06
-2.60496e-06
6.23451e-06
-4.00588e-06
7.21628e-06
-5.38668e-06
7.42743e-06
-6.63953e-06
6.98873e-06
-7.69213e-06
6.02923e-06
-8.4981e-06
4.67174e-06
-9.02801e-06
3.02732e-06
-9.26253e-06
1.1966e-06
-9.18831e-06
-7.24533e-07
-8.79722e-06
-2.63695e-06
-8.08921e-06
-4.42984e-06
-7.07898e-06
-5.97378e-06
-5.80638e-06
-7.118e-06
-4.34917e-06
-7.69533e-06
-2.83494e-06
-7.53861e-06
-1.44719e-06
-6.51034e-06
-4.18144e-07
-4.54633e-06
-1.71966e-06
-4.53516e-07
2.1582e-06
-1.52584e-06
5.46918e-06
-2.93512e-06
7.64379e-06
-4.45041e-06
8.73156e-06
-5.90663e-06
8.88365e-06
-7.1981e-06
8.2802e-06
-8.26392e-06
7.09504e-06
-9.0723e-06
5.48012e-06
-9.60709e-06
3.56212e-06
-9.85783e-06
1.44734e-06
-9.81369e-06
-7.68669e-07
-9.4617e-06
-2.98894e-06
-8.7895e-06
-5.10204e-06
-7.79346e-06
-6.96982e-06
-6.4927e-06
-8.41876e-06
-4.94845e-06
-9.23958e-06
-3.28551e-06
-9.20154e-06
-1.70894e-06
-8.08692e-06
-5.03691e-07
-5.75157e-06
-2.22335e-06
-5.28457e-07
2.68666e-06
-1.73998e-06
6.6807e-06
-3.27849e-06
9.1823e-06
-4.87228e-06
1.03253e-05
-6.34775e-06
1.03591e-05
-7.6116e-06
9.54405e-06
-8.62514e-06
8.10859e-06
-9.38047e-06
6.23545e-06
-9.88178e-06
4.06343e-06
-1.01323e-05
1.69789e-06
-1.01266e-05
-7.74397e-07
-9.84719e-06
-3.26836e-06
-9.26687e-06
-5.68236e-06
-8.35724e-06
-7.87945e-06
-7.1056e-06
-9.6704e-06
-5.54154e-06
-1.08036e-05
-3.7714e-06
-1.09717e-05
-2.01261e-06
-9.84571e-06
-6.09858e-07
-7.15433e-06
-2.83321e-06
-6.23837e-07
3.3105e-06
-1.98788e-06
8.04474e-06
-3.6327e-06
1.08271e-05
-5.24293e-06
1.19356e-05
-6.6487e-06
1.17649e-05
-7.78569e-06
1.0681e-05
-8.65227e-06
8.97517e-06
-9.27559e-06
6.85877e-06
-9.68783e-06
4.47567e-06
-9.91112e-06
1.92118e-06
-9.94854e-06
-7.36976e-07
-9.77989e-06
-3.43701e-06
-9.3622e-06
-6.10005e-06
-8.63692e-06
-8.60473e-06
-7.54765e-06
-1.07597e-05
-6.07276e-06
-1.22785e-05
-4.27525e-06
-1.27692e-05
-2.36429e-06
-1.17567e-05
-7.45004e-07
-8.77362e-06
-3.57822e-06
-7.54247e-07
4.06474e-06
-2.28497e-06
9.57546e-06
-3.98803e-06
1.25302e-05
-5.51036e-06
1.34579e-05
-6.71103e-06
1.29656e-05
-7.58008e-06
1.15501e-05
-8.17164e-06
9.56673e-06
-8.55926e-06
7.24638e-06
-8.80938e-06
4.72579e-06
-8.9667e-06
2.0785e-06
-9.046e-06
-6.57675e-07
-9.02736e-06
-3.45565e-06
-8.85417e-06
-6.27324e-06
-8.43636e-06
-9.02255e-06
-7.66439e-06
-1.15316e-05
-6.44339e-06
-1.34995e-05
-4.75744e-06
-1.44551e-05
-2.76752e-06
-1.37466e-05
-9.22654e-07
-1.06185e-05
-4.50087e-06
-9.45202e-07
5.00994e-06
-2.64911e-06
1.12794e-05
-4.31211e-06
1.41932e-05
-5.57466e-06
1.47205e-05
-6.37218e-06
1.37631e-05
-6.78487e-06
1.19628e-05
-6.94216e-06
9.72403e-06
-6.97144e-06
7.27566e-06
-6.97451e-06
4.72886e-06
-7.01822e-06
2.12221e-06
-7.13028e-06
-5.45612e-07
-7.29538e-06
-3.29056e-06
-7.45018e-06
-6.11843e-06
-7.47936e-06
-8.99337e-06
-7.21934e-06
-1.17916e-05
-6.48408e-06
-1.42348e-05
-5.1346e-06
-1.58046e-05
-3.21567e-06
-1.56655e-05
-1.16437e-06
-1.26698e-05
-5.66524e-06
-1.23666e-06
6.2466e-06
-3.08355e-06
1.31263e-05
-4.50866e-06
1.56183e-05
-5.23567e-06
1.54475e-05
-5.35651e-06
1.38839e-05
-5.08323e-06
1.16895e-05
-4.63239e-06
9.27318e-06
-4.18083e-06
6.8241e-06
-3.85595e-06
4.40399e-06
-3.7386e-06
2.00486e-06
-3.86665e-06
-4.17568e-07
-4.23406e-06
-2.92315e-06
-4.78337e-06
-5.56912e-06
-5.39221e-06
-8.38452e-06
-5.85951e-06
-1.13244e-05
-5.90748e-06
-1.41868e-05
-5.23354e-06
-1.64786e-05
-3.66635e-06
-1.72327e-05
-1.49921e-06
-1.48369e-05
-7.16445e-06
-1.67138e-06
7.91798e-06
-3.51241e-06
1.49673e-05
-4.31561e-06
1.64215e-05
-4.0895e-06
1.52213e-05
-3.19382e-06
1.29882e-05
-1.99967e-06
1.04953e-05
-7.96227e-07
8.06974e-06
2.18143e-07
5.80973e-06
9.16974e-07
3.70516e-06
1.22435e-06
1.69749e-06
1.1009e-06
-2.9411e-07
5.40044e-07
-2.3623e-06
-4.23739e-07
-4.60534e-06
-1.69312e-06
-7.11514e-06
-3.07268e-06
-9.9448e-06
-4.23078e-06
-1.30287e-05
-4.69517e-06
-1.60142e-05
-3.96547e-06
-1.79624e-05
-1.94192e-06
-1.68605e-05
-9.10637e-06
-2.22288e-06
1.01409e-05
-3.58644e-06
1.63308e-05
-3.07689e-06
1.5912e-05
-1.34359e-06
1.3488e-05
8.97052e-07
1.07476e-05
3.15471e-06
8.23769e-06
5.13762e-06
6.08682e-06
6.68803e-06
4.25933e-06
7.72507e-06
2.66811e-06
8.20579e-06
1.21677e-06
8.10322e-06
-1.91544e-07
7.39855e-06
-1.65763e-06
6.08665e-06
-3.29344e-06
4.19934e-06
-5.22783e-06
1.85478e-06
-7.60024e-06
-6.6047e-07
-1.05135e-05
-2.78986e-06
-1.38848e-05
-3.65644e-06
-1.70958e-05
-2.40216e-06
-1.81148e-05
-1.15085e-05
-2.54602e-06
1.26869e-05
-2.17798e-06
1.59628e-05
7.19004e-07
1.3015e-05
4.47037e-06
9.73668e-06
8.13398e-06
7.08399e-06
1.1302e-05
5.06965e-06
1.38293e-05
3.55956e-06
1.56881e-05
2.40053e-06
1.68915e-05
1.46466e-06
1.74547e-05
6.53584e-07
1.73763e-05
-1.13112e-07
1.66306e-05
-9.11952e-07
1.51676e-05
-1.8304e-06
1.29243e-05
-2.98449e-06
9.86285e-06
-4.53884e-06
6.06347e-06
-6.71408e-06
1.91467e-06
-9.736e-06
-1.55199e-06
-1.36292e-05
-2.42771e-06
-1.7239e-05
-1.39362e-05
-8.39062e-07
1.35259e-05
4.07004e-06
1.10537e-05
1.02968e-05
6.78821e-06
1.57941e-05
4.23939e-06
2.01589e-05
2.71923e-06
2.34589e-05
1.76956e-06
2.58615e-05
1.15698e-06
2.75221e-05
7.39993e-07
2.85544e-05
4.32277e-07
2.90268e-05
1.81206e-07
2.89626e-05
-4.89144e-08
2.83393e-05
-2.88672e-07
2.70826e-05
-5.73695e-07
2.5056e-05
-9.57875e-07
2.20525e-05
-1.53535e-06
1.78157e-05
-2.47727e-06
1.21712e-05
-4.09143e-06
5.46552e-06
-6.92354e-06
-1.88478e-07
-1.1585e-05
-1.41247e-05
1.35259e-05
2.45797e-05
3.13679e-05
3.56073e-05
3.83265e-05
4.0096e-05
4.1253e-05
4.1993e-05
4.24253e-05
4.26065e-05
4.25576e-05
4.22689e-05
4.16952e-05
4.07373e-05
3.9202e-05
3.67247e-05
3.26333e-05
2.57098e-05
1.41247e-05
)
;

boundaryField
{
    movingWall
    {
        type            calculated;
        value           uniform 0;
    }
    fixedWalls
    {
        type            calculated;
        value           uniform 0;
    }
    frontAndBack
    {
        type            empty;
        value           nonuniform 0();
    }
}


// ************************************************************************* //
