/*--------------------------------*- C++ -*----------------------------------*\
  =========                 |
  \\      /  F ield         | OpenFOAM: The Open Source CFD Toolbox
   \\    /   O peration     | Website:  https://openfoam.org
    \\  /    A nd           | Version:  6
     \\/     M anipulation  |
\*---------------------------------------------------------------------------*/
FoamFile
{
    version     2.0;
    format      ascii;
    class       volVectorField;
    location    "0.2";
    object      U;
}
// * * * * * * * * * * * * * * * * * * * * * * * * * * * * * * * * * * * * * //

dimensions      [0 1 -1 0 0 0 0];

internalField   nonuniform List<vector> 
400
(
(0.000252009 -0.000249061 0)
(0.000139619 0.000113326 0)
(-0.00117677 0.000567238 0)
(-0.00348004 0.000887947 0)
(-0.00637571 0.00104884 0)
(-0.00946674 0.00106484 0)
(-0.0123992 0.000960657 0)
(-0.0148804 0.000762689 0)
(-0.0166844 0.000496123 0)
(-0.0176529 0.00018513 0)
(-0.0176968 -0.000145664 0)
(-0.0168001 -0.000469696 0)
(-0.0150258 -0.000757557 0)
(-0.0125217 -0.000977011 0)
(-0.00952396 -0.00109427 0)
(-0.00635346 -0.00107714 0)
(-0.00339977 -0.000901087 0)
(-0.00108654 -0.000558965 0)
(0.000194603 -9.19478e-05 0)
(0.000266455 0.000261313 0)
(-7.96979e-05 -0.000167697 0)
(-0.00161318 0.00164623 0)
(-0.00569046 0.00361923 0)
(-0.0117144 0.00503678 0)
(-0.018886 0.00574513 0)
(-0.0263925 0.00576204 0)
(-0.0334591 0.00517335 0)
(-0.0394152 0.00409389 0)
(-0.0437313 0.00264859 0)
(-0.0460341 0.000967372 0)
(-0.0461166 -0.000813331 0)
(-0.0439492 -0.00254774 0)
(-0.0396904 -0.00407981 0)
(-0.0336935 -0.00524668 0)
(-0.0265061 -0.00588841 0)
(-0.0188491 -0.00586685 0)
(-0.0115628 -0.00509685 0)
(-0.00551134 -0.00359138 0)
(-0.00149487 -0.0015602 0)
(-4.4773e-05 0.000226087 0)
(-0.000531717 0.00109167 0)
(-0.00371342 0.00573394 0)
(-0.0105849 0.0102213 0)
(-0.0199844 0.0134037 0)
(-0.0307544 0.0149418 0)
(-0.0418084 0.0148344 0)
(-0.052103 0.0132518 0)
(-0.0607249 0.0104532 0)
(-0.0669485 0.00674018 0)
(-0.0702611 0.00243845 0)
(-0.0703793 -0.00210554 0)
(-0.0672643 -0.00652315 0)
(-0.0611344 -0.0104258 0)
(-0.0524732 -0.013417 0)
(-0.0420249 -0.0151191 0)
(-0.0307649 -0.0152215 0)
(-0.0198229 -0.0135525 0)
(-0.0103603 -0.0101761 0)
(-0.00355088 -0.00554885 0)
(-0.000480009 -0.000948919 0)
(-0.000932108 0.0034789 0)
(-0.00569374 0.0122156 0)
(-0.0152962 0.0199149 0)
(-0.0279071 0.0251899 0)
(-0.0419716 0.0275884 0)
(-0.056161 0.0271292 0)
(-0.0692301 0.0241017 0)
(-0.0801007 0.0189483 0)
(-0.0879211 0.0121923 0)
(-0.0920909 0.00440438 0)
(-0.0922759 -0.00380605 0)
(-0.0884243 -0.0117922 0)
(-0.0807817 -0.0188759 0)
(-0.0699032 -0.0243687 0)
(-0.0566534 -0.0276194 0)
(-0.0421831 -0.0280938 0)
(-0.0278485 -0.0254906 0)
(-0.0150891 -0.0198857 0)
(-0.00550779 -0.0119231 0)
(-0.000865616 -0.00322415 0)
(-0.0012838 0.00687579 0)
(-0.00753889 0.0209456 0)
(-0.0197982 0.0324995 0)
(-0.0355238 0.0400907 0)
(-0.052728 0.0432771 0)
(-0.0698384 0.0421801 0)
(-0.0854391 0.0372666 0)
(-0.0983329 0.0292048 0)
(-0.10759 0.0187724 0)
(-0.112558 0.00681281 0)
(-0.112867 -0.00577736 0)
(-0.108446 -0.0180481 0)
(-0.0995368 -0.0290018 0)
(-0.0867176 -0.0376211 0)
(-0.0709185 -0.0429325 0)
(-0.0534175 -0.0441165 0)
(-0.0357756 -0.0406676 0)
(-0.0197299 -0.0325831 0)
(-0.00737418 -0.0205836 0)
(-0.00120881 -0.00649668 0)
(-0.00161361 0.0112122 0)
(-0.00932204 0.0318631 0)
(-0.0242026 0.0479365 0)
(-0.0429915 0.0580543 0)
(-0.0632417 0.0619187 0)
(-0.083133 0.0598635 0)
(-0.1011 0.0526131 0)
(-0.115865 0.0411144 0)
(-0.126459 0.0264305 0)
(-0.132207 0.00969174 0)
(-0.13272 -0.00791199 0)
(-0.127895 -0.0251228 0)
(-0.117941 -0.0406115 0)
(-0.103413 -0.0530031 0)
(-0.0852522 -0.0609487 0)
(-0.0648232 -0.0632628 0)
(-0.0438767 -0.0591263 0)
(-0.0244725 -0.0483311 0)
(-0.00925935 -0.0315478 0)
(-0.00154431 -0.0107261 0)
(-0.00194753 0.0164723 0)
(-0.011127 0.0449595 0)
(-0.0286445 0.0662136 0)
(-0.0504701 0.0790368 0)
(-0.0736718 0.0834227 0)
(-0.0961865 0.0800516 0)
(-0.116331 0.070005 0)
(-0.13279 0.0545704 0)
(-0.144605 0.0351235 0)
(-0.151115 0.0130834 0)
(-0.151923 -0.0100808 0)
(-0.146891 -0.0328205 0)
(-0.13616 -0.0534824 0)
(-0.120205 -0.070316 0)
(-0.0999189 -0.0815429 0)
(-0.0766916 -0.0855107 0)
(-0.0524332 -0.0809439 0)
(-0.0295407 -0.0672604 0)
(-0.0112908 -0.0449273 0)
(-0.00190836 -0.0159482 0)
(-0.00230913 0.0226891 0)
(-0.0130331 0.0602836 0)
(-0.0332468 0.0873404 0)
(-0.0580731 0.10297 0)
(-0.0840658 0.107637 0)
(-0.108941 0.102535 0)
(-0.130953 0.0892212 0)
(-0.148817 0.0693938 0)
(-0.161647 0.044762 0)
(-0.168848 0.0170185 0)
(-0.170044 -0.0121265 0)
(-0.165054 -0.0408786 0)
(-0.153915 -0.0672936 0)
(-0.136958 -0.0892484 0)
(-0.114935 -0.104485 0)
(-0.0891707 -0.110771 0)
(-0.0616671 -0.10619 0)
(-0.0351463 -0.0895605 0)
(-0.0135959 -0.0609356 0)
(-0.00233671 -0.0222737 0)
(-0.00272263 0.0299407 0)
(-0.015119 0.0779379 0)
(-0.0381137 0.111331 0)
(-0.0658465 0.12972 0)
(-0.0943243 0.134286 0)
(-0.121095 0.126944 0)
(-0.144437 0.109876 0)
(-0.163205 0.0852626 0)
(-0.176678 0.0551564 0)
(-0.184397 0.0214857 0)
(-0.186049 -0.0138665 0)
(-0.181414 -0.0489398 0)
(-0.17039 -0.0815697 0)
(-0.153078 -0.109296 0)
(-0.12997 -0.129351 0)
(-0.102187 -0.1388 0)
(-0.0716908 -0.134862 0)
(-0.0414681 -0.11545 0)
(-0.0163018 -0.0798812 0)
(-0.00286762 -0.029886 0)
(-0.00322087 0.0383538 0)
(-0.0174808 0.0980711 0)
(-0.0433439 0.138164 0)
(-0.0737608 0.159016 0)
(-0.104166 0.162869 0)
(-0.132037 0.152641 0)
(-0.15583 0.131314 0)
(-0.174682 0.10162 0)
(-0.188171 0.0659464 0)
(-0.196071 0.0263885 0)
(-0.19819 -0.0151035 0)
(-0.194288 -0.0565269 0)
(-0.184088 -0.0956162 0)
(-0.167374 -0.129659 0)
(-0.144224 -0.155392 0)
(-0.115348 -0.169068 0)
(-0.0824534 -0.166778 0)
(-0.0486415 -0.145106 0)
(-0.0195473 -0.102147 0)
(-0.00354957 -0.039045 0)
(-0.00385976 0.0481246 0)
(-0.0202651 0.120878 0)
(-0.049054 0.167729 0)
(-0.0816975 0.190338 0)
(-0.113067 0.192526 0)
(-0.140762 0.178584 0)
(-0.163638 0.152485 0)
(-0.181325 0.117572 0)
(-0.193862 0.0765236 0)
(-0.201377 0.0314935 0)
(-0.203873 -0.015649 0)
(-0.201126 -0.063031 0)
(-0.192666 -0.108464 0)
(-0.177875 -0.149139 0)
(-0.156242 -0.181383 0)
(-0.127797 -0.200578 0)
(-0.0936587 -0.201402 0)
(-0.0567433 -0.178559 0)
(-0.023504 -0.128164 0)
(-0.00445517 -0.0501049 0)
(-0.00474395 0.0595702 0)
(-0.0237182 0.146607 0)
(-0.055395 0.199739 0)
(-0.089394 0.222766 0)
(-0.120144 0.221863 0)
(-0.1457 0.203158 0)
(-0.165656 0.171813 0)
(-0.180397 0.13179 0)
(-0.190608 0.0859588 0)
(-0.19689 0.0363758 0)
(-0.199529 -0.0153605 0)
(-0.198363 -0.0677232 0)
(-0.192744 -0.118839 0)
(-0.181601 -0.166047 0)
(-0.163672 -0.205457 0)
(-0.137992 -0.231634 0)
(-0.104617 -0.237606 0)
(-0.0657486 -0.215516 0)
(-0.0284077 -0.158366 0)
(-0.00570561 -0.0635567 0)
(-0.00607238 0.0732311 0)
(-0.0282529 0.175561 0)
(-0.0625244 0.23356 0)
(-0.0962797 0.254727 0)
(-0.123885 0.248705 0)
(-0.144428 0.223998 0)
(-0.158703 0.187082 0)
(-0.168141 0.142442 0)
(-0.174235 0.0929581 0)
(-0.178153 0.0403785 0)
(-0.180519 -0.0141885 0)
(-0.181299 -0.0698017 0)
(-0.179728 -0.125184 0)
(-0.174302 -0.178149 0)
(-0.162926 -0.224942 0)
(-0.143346 -0.259563 0)
(-0.113962 -0.273314 0)
(-0.0754116 -0.255065 0)
(-0.0345907 -0.193099 0)
(-0.00751282 -0.0801137 0)
(-0.00821202 0.0900519 0)
(-0.0345089 0.208029 0)
(-0.0704289 0.267882 0)
(-0.101048 0.283592 0)
(-0.121604 0.269788 0)
(-0.13314 0.237815 0)
(-0.138197 0.19538 0)
(-0.139498 0.147215 0)
(-0.139404 0.0958989 0)
(-0.139632 0.0426189 0)
(-0.141146 -0.0122237 0)
(-0.14409 -0.0684886 0)
(-0.147702 -0.125768 0)
(-0.150201 -0.18274 0)
(-0.148751 -0.236295 0)
(-0.139672 -0.280424 0)
(-0.119119 -0.305015 0)
(-0.0849536 -0.295166 0)
(-0.0424725 -0.232398 0)
(-0.0102412 -0.10085 0)
(-0.0117771 0.111638 0)
(-0.0432718 0.243983 0)
(-0.078309 0.300043 0)
(-0.10065 0.305083 0)
(-0.108378 0.28044 0)
(-0.105759 0.240359 0)
(-0.0975596 0.193259 0)
(-0.087803 0.143532 0)
(-0.0795343 0.0930262 0)
(-0.074819 0.0420941 0)
(-0.0748359 -0.00972063 0)
(-0.0799219 -0.0631946 0)
(-0.0894915 -0.118967 0)
(-0.101814 -0.17693 0)
(-0.113709 -0.235258 0)
(-0.120325 -0.288861 0)
(-0.11528 -0.327188 0)
(-0.0922737 -0.33181 0)
(-0.0523269 -0.275438 0)
(-0.0144418 -0.127356 0)
(-0.0175241 0.140637 0)
(-0.0547304 0.28219 0)
(-0.0827812 0.324742 0)
(-0.0880927 0.312467 0)
(-0.0751237 0.274439 0)
(-0.0526089 0.22675 0)
(-0.0274798 0.177269 0)
(-0.00453887 0.12912 0)
(0.0130726 0.0829043 0)
(0.0234132 0.0379459 0)
(0.0253726 -0.00706692 0)
(0.018484 -0.0537448 0)
(0.0029601 -0.103732 0)
(-0.0200118 -0.158297 0)
(-0.0476951 -0.21748 0)
(-0.074988 -0.278343 0)
(-0.0935442 -0.331787 0)
(-0.0920437 -0.357712 0)
(-0.0632293 -0.319351 0)
(-0.0206016 -0.161951 0)
(-0.0253199 0.181579 0)
(-0.0656152 0.317907 0)
(-0.0733005 0.331434 0)
(-0.048075 0.295401 0)
(-0.00557548 0.244195 0)
(0.041216 0.192361 0)
(0.0846445 0.145029 0)
(0.120524 0.102958 0)
(0.146686 0.0651298 0)
(0.162031 0.0298897 0)
(0.165926 -0.00466684 0)
(0.157923 -0.0406178 0)
(0.137724 -0.0802311 0)
(0.105438 -0.1259 0)
(0.0622695 -0.17971 0)
(0.0118246 -0.24201 0)
(-0.0378051 -0.307889 0)
(-0.0716195 -0.36023 0)
(-0.0698463 -0.356763 0)
(-0.0277547 -0.208214 0)
(-0.0291843 0.238712 0)
(-0.0603454 0.336125 0)
(-0.0219281 0.300679 0)
(0.050527 0.240148 0)
(0.12759 0.182938 0)
(0.197022 0.135376 0)
(0.254342 0.0973865 0)
(0.298251 0.0668413 0)
(0.328822 0.0413495 0)
(0.346463 0.018777 0)
(0.351372 -0.00279129 0)
(0.343302 -0.0252586 0)
(0.321473 -0.0507784 0)
(0.284653 -0.0820381 0)
(0.231592 -0.122439 0)
(0.16221 -0.175673 0)
(0.079902 -0.243476 0)
(-0.0031519 -0.319335 0)
(-0.0540685 -0.368974 0)
(-0.0279173 -0.267078 0)
(0.00929014 0.281226 0)
(0.020955 0.29507 0)
(0.138931 0.211094 0)
(0.264363 0.143538 0)
(0.364381 0.097234 0)
(0.440387 0.06582 0)
(0.496758 0.0442714 0)
(0.536885 0.0289107 0)
(0.563454 0.0172154 0)
(0.578312 0.00749404 0)
(0.582387 -0.00149201 0)
(0.575704 -0.0108502 0)
(0.557321 -0.0218605 0)
(0.525152 -0.036359 0)
(0.4758 -0.0572965 0)
(0.404551 -0.0894356 0)
(0.305072 -0.139816 0)
(0.173253 -0.216511 0)
(0.0424329 -0.311712 0)
(0.0197548 -0.299316 0)
(0.300604 0.145806 0)
(0.397328 0.127344 0)
(0.557427 0.0760847 0)
(0.674453 0.0437636 0)
(0.743905 0.0256212 0)
(0.787163 0.0152884 0)
(0.815486 0.0092501 0)
(0.833953 0.00553727 0)
(0.845382 0.00304569 0)
(0.851368 0.00115929 0)
(0.852664 -0.000497989 0)
(0.849381 -0.00222163 0)
(0.840999 -0.00435409 0)
(0.826141 -0.00744991 0)
(0.802084 -0.0125688 0)
(0.76363 -0.021818 0)
(0.699059 -0.0393278 0)
(0.5839 -0.0726587 0)
(0.416852 -0.127687 0)
(0.309851 -0.149195 0)
)
;

boundaryField
{
    movingWall
    {
        type            fixedValue;
        value           uniform (1 0 0);
    }
    fixedWalls
    {
        type            noSlip;
    }
    frontAndBack
    {
        type            empty;
    }
}


// ************************************************************************* //
